18
0 1 // Bzm.H2O.bp86.631gs.opt.log // Final SCF Energy = -456.282402637
N	-0.336142	-0.253559	1.356755
C	-0.452338	0.577972	0.239055
C	-1.210891	-0.066734	-0.779732
N	-1.543201	-1.304227	-0.233243
C	-0.996064	-1.351954	1.034158
C	0.059310	1.874161	0.038112
C	-0.206606	2.486955	-1.191253
C	-0.961030	1.833478	-2.199028
C	-1.479701	0.544346	-2.015085
H	-2.090460	-2.038294	-0.678031
H	-1.117203	-2.225413	1.676766
H	0.632839	2.350215	0.841610
H	0.173356	3.496197	-1.383753
H	-1.146449	2.349286	-3.147612
H	-2.063074	0.047339	-2.797634
O	1.314720	1.415583	3.042589
H	2.179472	1.088749	2.723242
H	0.686462	0.736898	2.682085
