 Entering GApplication 60295180 resources: utime ~3963s, stime ~158s, Rss ~1042988, inblocks ~4785337, outblocks ~1088963
al/homes/p/parksjm/tpss/Bzm.H2O/Bzm.H2O.tpss.631gs.opt.log
 Initial command:
 /usr/common/usg/g09/d1/g09/l1.exe "/scratch/scratchdirs/parksjm/g09/13504185.hopque01/Gau-32178.inp" -scrdir="/scratch/scratchdirs/parksjm/g09/13504185.hopque01/"
 Entering Link 1 = /usr/common/usg/g09/d1/g09/l1.exe PID=     32179.
  
 Copyright (c) 1988,1990,1992,1993,1995,1998,2003,2009,2013,
            Gaussian, Inc.  All Rights Reserved.
  
 This is part of the Gaussian(R) 09 program.  It is based on
 the Gaussian(R) 03 system (copyright 2003, Gaussian, Inc.),
 the Gaussian(R) 98 system (copyright 1998, Gaussian, Inc.),
 the Gaussian(R) 94 system (copyright 1995, Gaussian, Inc.),
 the Gaussian 92(TM) system (copyright 1992, Gaussian, Inc.),
 the Gaussian 90(TM) system (copyright 1990, Gaussian, Inc.),
 the Gaussian 88(TM) system (copyright 1988, Gaussian, Inc.),
 the Gaussian 86(TM) system (copyright 1986, Carnegie Mellon
 University), and the Gaussian 82(TM) system (copyright 1983,
 Carnegie Mellon University). Gaussian is a federally registered
 trademark of Gaussian, Inc.
  
 This software contains proprietary and confidential information,
 including trade secrets, belonging to Gaussian, Inc.
  
 This software is provided under written license and may be
 used, copied, transmitted, or stored only in accord with that
 written license.
  
 The following legend is applicable only to US Government
 contracts under FAR:
  
                    RESTRICTED RIGHTS LEGEND
  
 Use, reproduction and disclosure by the US Government is
 subject to restrictions as set forth in subparagraphs (a)
 and (c) of the Commercial Computer Software - Restricted
 Rights clause in FAR 52.227-19.
  
 Gaussian, Inc.
 340 Quinnipiac St., Bldg. 40, Wallingford CT 06492
  
  
 ---------------------------------------------------------------
 Warning -- This program may not be used in any manner that
 competes with the business of Gaussian, Inc. or will provide
 assistance to any competitor of Gaussian, Inc.  The licensee
 of this program is prohibited from giving any competitor of
 Gaussian, Inc. access to this program.  By using this program,
 the user acknowledges that Gaussian, Inc. is engaged in the
 business of creating and licensing software in the field of
 computational chemistry and represents and warrants to the
 licensee that it is not a competitor of Gaussian, Inc. and that
 it will not use this program in any manner prohibited above.
 ---------------------------------------------------------------
  

 Cite this work as:
 Gaussian 09, Revision D.01,
 M. J. Frisch, G. W. Trucks, H. B. Schlegel, G. E. Scuseria, 
 M. A. Robb, J. R. Cheeseman, G. Scalmani, V. Barone, B. Mennucci, 
 G. A. Petersson, H. Nakatsuji, M. Caricato, X. Li, H. P. Hratchian, 
 A. F. Izmaylov, J. Bloino, G. Zheng, J. L. Sonnenberg, M. Hada, 
 M. Ehara, K. Toyota, R. Fukuda, J. Hasegawa, M. Ishida, T. Nakajima, 
 Y. Honda, O. Kitao, H. Nakai, T. Vreven, J. A. Montgomery, Jr., 
 J. E. Peralta, F. Ogliaro, M. Bearpark, J. J. Heyd, E. Brothers, 
 K. N. Kudin, V. N. Staroverov, T. Keith, R. Kobayashi, J. Normand, 
 K. Raghavachari, A. Rendell, J. C. Burant, S. S. Iyengar, J. Tomasi, 
 M. Cossi, N. Rega, J. M. Millam, M. Klene, J. E. Knox, J. B. Cross, 
 V. Bakken, C. Adamo, J. Jaramillo, R. Gomperts, R. E. Stratmann, 
 O. Yazyev, A. J. Austin, R. Cammi, C. Pomelli, J. W. Ochterski, 
 R. L. Martin, K. Morokuma, V. G. Zakrzewski, G. A. Voth, 
 P. Salvador, J. J. Dannenberg, S. Dapprich, A. D. Daniels, 
 O. Farkas, J. B. Foresman, J. V. Ortiz, J. Cioslowski, 
 and D. J. Fox, Gaussian, Inc., Wallingford CT, 2013.
 
 ******************************************
 Gaussian 09:  AS64L-G09RevD.01 24-Apr-2013
                28-Oct-2015 
 ******************************************
 %nproc=24
 Will use up to   24 processors via shared memory.
 %chk=Bzm.H2O.chk
 %mem=7000mb
 ----------------------------------------------------
 # tpsstpss/6-31G(d) opt integral=ultrafine scf=tight
 ----------------------------------------------------
 1/14=-1,18=20,19=15,26=4,38=1/1,3;
 2/9=110,12=2,17=6,18=5,40=1/2;
 3/5=1,6=6,7=1,11=2,16=1,25=1,30=1,71=1,74=2523,75=-5/1,2,3;
 4//1;
 5/5=2,32=2,38=5/2;
 6/7=2,8=2,9=2,10=2,28=1/1;
 7//1,2,3,16;
 1/14=-1,18=20,19=15,26=4/3(2);
 2/9=110/2;
 99//99;
 2/9=110/2;
 3/5=1,6=6,7=1,11=2,16=1,25=1,30=1,71=1,74=2523,75=-5/1,2,3;
 4/5=5,16=3,69=1/1;
 5/5=2,32=2,38=5/2;
 7//1,2,3,16;
 1/14=-1,18=20,19=15,26=4/3(-5);
 2/9=110/2;
 6/7=2,8=2,9=2,10=2,19=2,28=1/1;
 99/9=1/99;
 -------
 Bzm.H2O
 -------
 Symbolic Z-matrix:
 Charge =  0 Multiplicity = 1
 N                    -0.33614  -0.25356   1.35676 
 C                    -0.45234   0.57797   0.23906 
 C                    -1.21089  -0.06673  -0.77973 
 N                    -1.5432   -1.30423  -0.23324 
 C                    -0.99606  -1.35195   1.03416 
 C                     0.05931   1.87416   0.03811 
 C                    -0.20661   2.48696  -1.19125 
 C                    -0.96103   1.83348  -2.19903 
 C                    -1.4797    0.54435  -2.01509 
 H                    -2.09046  -2.03829  -0.67803 
 H                    -1.1172   -2.22541   1.67677 
 H                     0.63284   2.35021   0.84161 
 H                     0.17336   3.4962   -1.38375 
 H                    -1.14645   2.34929  -3.14761 
 H                    -2.06307   0.04734  -2.79763 
 O                     1.31472   1.41558   3.04259 
 H                     2.17947   1.08875   2.72324 
 H                     0.68646   0.7369    2.68209 
 
 Add virtual bond connecting atoms H18        and N1         Dist= 3.68D+00.

 GradGradGradGradGradGradGradGradGradGradGradGradGradGradGradGradGradGrad
 Berny optimization.
 Initialization pass.
                           ----------------------------
                           !    Initial Parameters    !
                           ! (Angstroms and Degrees)  !
 --------------------------                            --------------------------
 ! Name  Definition              Value          Derivative Info.                !
 --------------------------------------------------------------------------------
 ! R1    R(1,2)                  1.3979         estimate D2E/DX2                !
 ! R2    R(1,5)                  1.3214         estimate D2E/DX2                !
 ! R3    R(1,18)                 1.9451         estimate D2E/DX2                !
 ! R4    R(2,3)                  1.4244         estimate D2E/DX2                !
 ! R5    R(2,6)                  1.4079         estimate D2E/DX2                !
 ! R6    R(3,4)                  1.393          estimate D2E/DX2                !
 ! R7    R(3,9)                  1.4042         estimate D2E/DX2                !
 ! R8    R(4,5)                  1.3813         estimate D2E/DX2                !
 ! R9    R(4,10)                 1.0179         estimate D2E/DX2                !
 ! R10   R(5,11)                 1.0911         estimate D2E/DX2                !
 ! R11   R(6,7)                  1.3991         estimate D2E/DX2                !
 ! R12   R(6,12)                 1.096          estimate D2E/DX2                !
 ! R13   R(7,8)                  1.4184         estimate D2E/DX2                !
 ! R14   R(7,13)                 1.0954         estimate D2E/DX2                !
 ! R15   R(8,9)                  1.4017         estimate D2E/DX2                !
 ! R16   R(8,14)                 1.0956         estimate D2E/DX2                !
 ! R17   R(9,15)                 1.0953         estimate D2E/DX2                !
 ! R18   R(16,17)                0.9781         estimate D2E/DX2                !
 ! R19   R(16,18)                0.9926         estimate D2E/DX2                !
 ! A1    A(2,1,5)              104.9363         estimate D2E/DX2                !
 ! A2    A(2,1,18)             106.5945         estimate D2E/DX2                !
 ! A3    A(5,1,18)             148.4527         estimate D2E/DX2                !
 ! A4    A(1,2,3)              110.2974         estimate D2E/DX2                !
 ! A5    A(1,2,6)              129.163          estimate D2E/DX2                !
 ! A6    A(3,2,6)              120.5396         estimate D2E/DX2                !
 ! A7    A(2,3,4)              104.3905         estimate D2E/DX2                !
 ! A8    A(2,3,9)              122.29           estimate D2E/DX2                !
 ! A9    A(4,3,9)              133.3195         estimate D2E/DX2                !
 ! A10   A(3,4,5)              107.2275         estimate D2E/DX2                !
 ! A11   A(3,4,10)             126.6883         estimate D2E/DX2                !
 ! A12   A(5,4,10)             126.0837         estimate D2E/DX2                !
 ! A13   A(1,5,4)              113.1482         estimate D2E/DX2                !
 ! A14   A(1,5,11)             125.2462         estimate D2E/DX2                !
 ! A15   A(4,5,11)             121.6056         estimate D2E/DX2                !
 ! A16   A(2,6,7)              117.3586         estimate D2E/DX2                !
 ! A17   A(2,6,12)             119.0404         estimate D2E/DX2                !
 ! A18   A(7,6,12)             123.5999         estimate D2E/DX2                !
 ! A19   A(6,7,8)              121.5743         estimate D2E/DX2                !
 ! A20   A(6,7,13)             119.4721         estimate D2E/DX2                !
 ! A21   A(8,7,13)             118.9535         estimate D2E/DX2                !
 ! A22   A(7,8,9)              121.8235         estimate D2E/DX2                !
 ! A23   A(7,8,14)             119.2288         estimate D2E/DX2                !
 ! A24   A(9,8,14)             118.9476         estimate D2E/DX2                !
 ! A25   A(3,9,8)              116.4138         estimate D2E/DX2                !
 ! A26   A(3,9,15)             122.2106         estimate D2E/DX2                !
 ! A27   A(8,9,15)             121.3756         estimate D2E/DX2                !
 ! A28   A(17,16,18)           102.2714         estimate D2E/DX2                !
 ! A29   A(1,18,16)            158.1871         estimate D2E/DX2                !
 ! D1    D(5,1,2,3)             -0.1372         estimate D2E/DX2                !
 ! D2    D(5,1,2,6)            179.8184         estimate D2E/DX2                !
 ! D3    D(18,1,2,3)          -179.1019         estimate D2E/DX2                !
 ! D4    D(18,1,2,6)             0.8537         estimate D2E/DX2                !
 ! D5    D(2,1,5,4)              0.1352         estimate D2E/DX2                !
 ! D6    D(2,1,5,11)          -179.8436         estimate D2E/DX2                !
 ! D7    D(18,1,5,4)           178.2386         estimate D2E/DX2                !
 ! D8    D(18,1,5,11)           -1.7401         estimate D2E/DX2                !
 ! D9    D(2,1,18,16)          -22.5547         estimate D2E/DX2                !
 ! D10   D(5,1,18,16)          159.3574         estimate D2E/DX2                !
 ! D11   D(1,2,3,4)              0.0892         estimate D2E/DX2                !
 ! D12   D(1,2,3,9)           -179.8818         estimate D2E/DX2                !
 ! D13   D(6,2,3,4)           -179.8708         estimate D2E/DX2                !
 ! D14   D(6,2,3,9)              0.1582         estimate D2E/DX2                !
 ! D15   D(1,2,6,7)            179.9205         estimate D2E/DX2                !
 ! D16   D(1,2,6,12)            -0.437          estimate D2E/DX2                !
 ! D17   D(3,2,6,7)             -0.1279         estimate D2E/DX2                !
 ! D18   D(3,2,6,12)           179.5146         estimate D2E/DX2                !
 ! D19   D(2,3,4,5)             -0.0074         estimate D2E/DX2                !
 ! D20   D(2,3,4,10)           179.7184         estimate D2E/DX2                !
 ! D21   D(9,3,4,5)            179.9588         estimate D2E/DX2                !
 ! D22   D(9,3,4,10)            -0.3154         estimate D2E/DX2                !
 ! D23   D(2,3,9,8)             -0.0497         estimate D2E/DX2                !
 ! D24   D(2,3,9,15)           179.9935         estimate D2E/DX2                !
 ! D25   D(4,3,9,8)            179.9889         estimate D2E/DX2                !
 ! D26   D(4,3,9,15)             0.0322         estimate D2E/DX2                !
 ! D27   D(3,4,5,1)             -0.083          estimate D2E/DX2                !
 ! D28   D(3,4,5,11)           179.8967         estimate D2E/DX2                !
 ! D29   D(10,4,5,1)          -179.8109         estimate D2E/DX2                !
 ! D30   D(10,4,5,11)            0.1688         estimate D2E/DX2                !
 ! D31   D(2,6,7,8)             -0.0005         estimate D2E/DX2                !
 ! D32   D(2,6,7,13)           179.8846         estimate D2E/DX2                !
 ! D33   D(12,6,7,8)          -179.6252         estimate D2E/DX2                !
 ! D34   D(12,6,7,13)            0.2599         estimate D2E/DX2                !
 ! D35   D(6,7,8,9)              0.1092         estimate D2E/DX2                !
 ! D36   D(6,7,8,14)           179.9908         estimate D2E/DX2                !
 ! D37   D(13,7,8,9)          -179.7765         estimate D2E/DX2                !
 ! D38   D(13,7,8,14)            0.1052         estimate D2E/DX2                !
 ! D39   D(7,8,9,3)             -0.0813         estimate D2E/DX2                !
 ! D40   D(7,8,9,15)           179.8758         estimate D2E/DX2                !
 ! D41   D(14,8,9,3)          -179.9634         estimate D2E/DX2                !
 ! D42   D(14,8,9,15)           -0.0062         estimate D2E/DX2                !
 ! D43   D(17,16,18,1)         -69.841          estimate D2E/DX2                !
 --------------------------------------------------------------------------------
 Trust Radius=3.00D-01 FncErr=1.00D-07 GrdErr=1.00D-06
 Number of steps in this run=    101 maximum allowed number of steps=    108.
 GradGradGradGradGradGradGradGradGradGradGradGradGradGradGradGradGradGrad

                          Input orientation:                          
 ---------------------------------------------------------------------
 Center     Atomic      Atomic             Coordinates (Angstroms)
 Number     Number       Type             X           Y           Z
 ---------------------------------------------------------------------
      1          7           0       -0.336142   -0.253559    1.356755
      2          6           0       -0.452338    0.577972    0.239055
      3          6           0       -1.210891   -0.066734   -0.779732
      4          7           0       -1.543201   -1.304227   -0.233243
      5          6           0       -0.996064   -1.351954    1.034158
      6          6           0        0.059310    1.874161    0.038112
      7          6           0       -0.206606    2.486955   -1.191253
      8          6           0       -0.961030    1.833478   -2.199028
      9          6           0       -1.479701    0.544346   -2.015085
     10          1           0       -2.090460   -2.038294   -0.678031
     11          1           0       -1.117203   -2.225413    1.676766
     12          1           0        0.632839    2.350215    0.841610
     13          1           0        0.173356    3.496197   -1.383753
     14          1           0       -1.146449    2.349286   -3.147612
     15          1           0       -2.063074    0.047339   -2.797634
     16          8           0        1.314720    1.415583    3.042589
     17          1           0        2.179472    1.088749    2.723242
     18          1           0        0.686462    0.736898    2.682085
 ---------------------------------------------------------------------
                    Distance matrix (angstroms):
                    1          2          3          4          5
     1  N    0.000000
     2  C    1.397927   0.000000
     3  C    2.316175   1.424421   0.000000
     4  N    2.255879   2.226145   1.393007   0.000000
     5  C    1.321377   2.156952   2.233414   1.381283   0.000000
     6  C    2.534244   1.407930   2.459543   3.569849   3.537476
     7  C    3.744268   2.397995   2.774755   4.132473   4.506986
     8  C    4.170108   2.789142   2.384877   3.748123   4.538909
     9  C    3.648792   2.477449   1.404199   2.568310   3.623223
    10  H    3.225409   3.220146   2.161257   1.017931   2.144844
    11  H    2.144918   3.219942   3.271552   2.162913   1.091123
    12  H    2.825586   2.163684   3.445248   4.386959   4.049254
    13  H    4.672327   3.397210   3.869814   5.226310   5.542419
    14  H    5.265047   3.884438   3.383513   4.690322   5.586501
    15  H    4.509078   3.478149   2.193435   2.945013   4.216534
    16  O    2.890228   3.418170   4.815196   5.127978   4.127079
    17  H    3.161865   3.654928   5.010043   5.322164   4.346730
    18  H    1.945051   2.700096   4.028641   4.199610   3.147993
                    6          7          8          9         10
     6  C    0.000000
     7  C    1.399130   0.000000
     8  C    2.459176   1.418379   0.000000
     9  C    2.890083   2.464386   1.401683   0.000000
    10  H    4.521247   4.928507   4.310413   2.971661   0.000000
    11  H    4.569013   5.591166   5.614336   4.629550   2.554860
    12  H    1.095980   2.203610   3.471731   3.985561   5.383742
    13  H    2.160025   1.095444   2.171667   3.441599   6.021088
    14  H    3.439249   2.174764   1.095559   2.156730   5.122582
    15  H    3.985379   3.461020   2.182458   1.095319   2.973774
    16  O    3.288348   4.624683   5.729592   5.843621   6.112899
    17  H    3.510254   4.792872   5.886095   6.011461   6.291214
    18  H    2.945722   4.343158   5.267066   5.176171   5.167530
                   11         12         13         14         15
    11  H    0.000000
    12  H    4.969558   0.000000
    13  H    6.615825   2.544924   0.000000
    14  H    6.648560   4.368038   2.483644   0.000000
    15  H    5.106890   5.080874   4.346872   2.502328   0.000000
    16  O    4.586564   2.486525   5.022367   6.726644   6.884024
    17  H    4.790287   2.742974   5.166015   6.864228   7.040156
    18  H    3.610978   2.448064   4.940450   6.320184   6.169502
                   16         17         18
    16  O    0.000000
    17  H    0.978059   0.000000
    18  H    0.992615   1.534461   0.000000
 Stoichiometry    C7H8N2O
 Framework group  C1[X(C7H8N2O)]
 Deg. of freedom    48
 Full point group                 C1      NOp   1
 Largest Abelian subgroup         C1      NOp   1
 Largest concise Abelian subgroup C1      NOp   1
                         Standard orientation:                         
 ---------------------------------------------------------------------
 Center     Atomic      Atomic             Coordinates (Angstroms)
 Number     Number       Type             X           Y           Z
 ---------------------------------------------------------------------
      1          7           0        1.334866    0.819847   -0.047408
      2          6           0        0.205531   -0.003875   -0.030538
      3          6           0       -0.980260    0.784176    0.012496
      4          7           0       -0.521746    2.099546    0.018573
      5          6           0        0.858201    2.051930   -0.019145
      6          6           0        0.129946   -1.409626   -0.050946
      7          6           0       -1.144929   -1.985441   -0.024531
      8          6           0       -2.318339   -1.189934    0.021026
      9          6           0       -2.261630    0.210479    0.039616
     10          1           0       -1.092138    2.942338    0.041762
     11          1           0        1.461800    2.960881   -0.024322
     12          1           0        1.057634   -1.991750   -0.092188
     13          1           0       -1.244076   -3.076262   -0.041156
     14          1           0       -3.297341   -1.681289    0.040370
     15          1           0       -3.172609    0.817718    0.072807
     16          8           0        3.410974   -1.190886   -0.035506
     17          1           0        3.495711   -1.268572    0.935773
     18          1           0        2.880266   -0.357983   -0.135033
 ---------------------------------------------------------------------
 Rotational constants (GHZ):      1.8193052      1.1851761      0.7197798
 Standard basis: 6-31G(d) (6D, 7F)
 There are   166 symmetry adapted cartesian basis functions of A   symmetry.
 There are   166 symmetry adapted basis functions of A   symmetry.
   166 basis functions,   312 primitive gaussians,   166 cartesian basis functions
    36 alpha electrons       36 beta electrons
       nuclear repulsion energy       489.4682220786 Hartrees.
 NAtoms=   18 NActive=   18 NUniq=   18 SFac= 1.00D+00 NAtFMM=   60 NAOKFM=F Big=F
 Integral buffers will be    131072 words long.
 Raffenetti 2 integral format.
 Two-electron integral symmetry is turned on.
 One-electron integrals computed using PRISM.
 NBasis=   166 RedAO= T EigKep=  4.16D-04  NBF=   166
 NBsUse=   166 1.00D-06 EigRej= -1.00D+00 NBFU=   166
 ExpMin= 1.61D-01 ExpMax= 5.48D+03 ExpMxC= 8.25D+02 IAcc=3 IRadAn=         5 AccDes= 0.00D+00
 Harris functional with IExCor= 1009 and IRadAn=       5 diagonalized for initial guess.
 HarFok:  IExCor= 1009 AccDes= 0.00D+00 IRadAn=         5 IDoV= 1 UseB2=F ITyADJ=14
 ICtDFT=  3500011 ScaDFX=  1.000000  1.000000  1.000000  1.000000
 FoFCou: FMM=F IPFlag=           0 FMFlag=      100000 FMFlg1=           0
         NFxFlg=           0 DoJE=T BraDBF=F KetDBF=T FulRan=T
         wScrn=  0.000000 ICntrl=     500 IOpCl=  0 I1Cent=   200000004 NGrid=           0
         NMat0=    1 NMatS0=      1 NMatT0=    0 NMatD0=    1 NMtDS0=    0 NMtDT0=    0
 Petite list used in FoFCou.
 Keep J ints in memory in canonical form, NReq=98505695.
 Requested convergence on RMS density matrix=1.00D-08 within 128 cycles.
 Requested convergence on MAX density matrix=1.00D-06.
 Requested convergence on             energy=1.00D-06.
 No special actions if energy rises.
 Integral accuracy reduced to 1.0D-05 until final iterations.
 Initial convergence to 1.0D-05 achieved.  Increase integral accuracy.
 SCF Done:  E(RTPSS-TPSS) =  -456.361950555     A.U. after   16 cycles
            NFock= 16  Conv=0.28D-08     -V/T= 2.0088

 **********************************************************************

            Population analysis using the SCF density.

 **********************************************************************

 Orbital symmetries:
       Occupied  (A) (A) (A) (A) (A) (A) (A) (A) (A) (A) (A) (A)
                 (A) (A) (A) (A) (A) (A) (A) (A) (A) (A) (A) (A)
                 (A) (A) (A) (A) (A) (A) (A) (A) (A) (A) (A) (A)
       Virtual   (A) (A) (A) (A) (A) (A) (A) (A) (A) (A) (A) (A)
                 (A) (A) (A) (A) (A) (A) (A) (A) (A) (A) (A) (A)
                 (A) (A) (A) (A) (A) (A) (A) (A) (A) (A) (A) (A)
                 (A) (A) (A) (A) (A) (A) (A) (A) (A) (A) (A) (A)
                 (A) (A) (A) (A) (A) (A) (A) (A) (A) (A) (A) (A)
                 (A) (A) (A) (A) (A) (A) (A) (A) (A) (A) (A) (A)
                 (A) (A) (A) (A) (A) (A) (A) (A) (A) (A) (A) (A)
                 (A) (A) (A) (A) (A) (A) (A) (A) (A) (A) (A) (A)
                 (A) (A) (A) (A) (A) (A) (A) (A) (A) (A) (A) (A)
                 (A) (A) (A) (A) (A) (A) (A) (A) (A) (A) (A) (A)
                 (A) (A) (A) (A) (A) (A) (A) (A) (A) (A)
 The electronic state is 1-A.
 Alpha  occ. eigenvalues --  -18.85756 -14.18927 -14.11885 -10.07649 -10.04353
 Alpha  occ. eigenvalues --  -10.02478 -10.01400 -10.00682 -10.00082  -9.99891
 Alpha  occ. eigenvalues --   -0.95325  -0.88602  -0.82381  -0.77939  -0.68630
 Alpha  occ. eigenvalues --   -0.68090  -0.58376  -0.57964  -0.54827  -0.50126
 Alpha  occ. eigenvalues --   -0.45852  -0.44093  -0.42546  -0.40273  -0.39842
 Alpha  occ. eigenvalues --   -0.39062  -0.37471  -0.32604  -0.31904  -0.30536
 Alpha  occ. eigenvalues --   -0.29259  -0.27795  -0.24382  -0.20778  -0.20324
 Alpha  occ. eigenvalues --   -0.20220
 Alpha virt. eigenvalues --   -0.04492  -0.00784   0.01374   0.04757   0.07986
 Alpha virt. eigenvalues --    0.09493   0.10701   0.13093   0.13613   0.15243
 Alpha virt. eigenvalues --    0.18083   0.19026   0.20548   0.21171   0.23755
 Alpha virt. eigenvalues --    0.28357   0.30247   0.30344   0.33379   0.37078
 Alpha virt. eigenvalues --    0.46261   0.48293   0.49593   0.50275   0.51661
 Alpha virt. eigenvalues --    0.52510   0.55275   0.55767   0.56927   0.57331
 Alpha virt. eigenvalues --    0.59146   0.59751   0.59807   0.61937   0.64294
 Alpha virt. eigenvalues --    0.64776   0.66266   0.72235   0.74747   0.76675
 Alpha virt. eigenvalues --    0.77859   0.78161   0.80209   0.80583   0.82227
 Alpha virt. eigenvalues --    0.82372   0.85154   0.85515   0.87719   0.89082
 Alpha virt. eigenvalues --    0.92628   0.92931   0.95286   0.96225   1.00189
 Alpha virt. eigenvalues --    1.05363   1.07784   1.08871   1.10620   1.13964
 Alpha virt. eigenvalues --    1.17918   1.20355   1.23240   1.27602   1.28711
 Alpha virt. eigenvalues --    1.30500   1.33263   1.37449   1.38298   1.40740
 Alpha virt. eigenvalues --    1.42687   1.43512   1.45531   1.46161   1.50150
 Alpha virt. eigenvalues --    1.51132   1.59435   1.71066   1.73538   1.74639
 Alpha virt. eigenvalues --    1.76112   1.78279   1.79541   1.81109   1.84747
 Alpha virt. eigenvalues --    1.89618   1.89697   1.93129   1.97144   1.98124
 Alpha virt. eigenvalues --    2.01394   2.02431   2.09156   2.10638   2.12921
 Alpha virt. eigenvalues --    2.18785   2.20324   2.20674   2.22023   2.22223
 Alpha virt. eigenvalues --    2.33567   2.35301   2.39479   2.41489   2.48411
 Alpha virt. eigenvalues --    2.52987   2.54778   2.56369   2.61075   2.61790
 Alpha virt. eigenvalues --    2.63696   2.66545   2.70629   2.74996   2.78818
 Alpha virt. eigenvalues --    2.83399   2.96772   3.02535   3.15851   3.39261
 Alpha virt. eigenvalues --    3.69854   3.97387   4.03439   4.05324   4.10714
 Alpha virt. eigenvalues --    4.18142   4.22679   4.36646   4.39581   4.71920
          Condensed to atoms (all electrons):
               1          2          3          4          5          6
     1  N    6.932265   0.313265  -0.059755  -0.071752   0.484818  -0.067897
     2  C    0.313265   4.711996   0.487817  -0.044791  -0.089238   0.511745
     3  C   -0.059755   0.487817   4.745846   0.237737  -0.092690  -0.053787
     4  N   -0.071752  -0.044791   0.237737   7.078566   0.314434   0.009943
     5  C    0.484818  -0.089238  -0.092690   0.314434   4.779855   0.008979
     6  C   -0.067897   0.511745  -0.053787   0.009943   0.008979   5.089090
     7  C    0.004791  -0.025089  -0.037791  -0.000071   0.000005   0.497336
     8  C   -0.000174  -0.035632  -0.006502   0.005154   0.000002  -0.030447
     9  C    0.010222  -0.041892   0.485262  -0.083020   0.005829  -0.045199
    10  H    0.003915   0.006692  -0.024258   0.304032  -0.023170  -0.000135
    11  H   -0.038319   0.005284   0.003703  -0.055397   0.378609  -0.000179
    12  H   -0.002013  -0.040925   0.005976  -0.000135   0.000220   0.315885
    13  H   -0.000091   0.002442   0.000823   0.000003   0.000004  -0.035985
    14  H    0.000002   0.000844   0.002365  -0.000106   0.000003   0.003768
    15  H   -0.000128   0.003446  -0.039361  -0.005188  -0.000203   0.000240
    16  O   -0.018122  -0.003298   0.000007  -0.000009   0.000493  -0.005362
    17  H    0.002407  -0.000029  -0.000002   0.000000   0.000021   0.000887
    18  H    0.059967  -0.002695   0.000545   0.000270  -0.002193  -0.000763
               7          8          9         10         11         12
     1  N    0.004791  -0.000174   0.010222   0.003915  -0.038319  -0.002013
     2  C   -0.025089  -0.035632  -0.041892   0.006692   0.005284  -0.040925
     3  C   -0.037791  -0.006502   0.485262  -0.024258   0.003703   0.005976
     4  N   -0.000071   0.005154  -0.083020   0.304032  -0.055397  -0.000135
     5  C    0.000005   0.000002   0.005829  -0.023170   0.378609   0.000220
     6  C    0.497336  -0.030447  -0.045199  -0.000135  -0.000179   0.315885
     7  C    4.944303   0.520471  -0.035657   0.000005   0.000005  -0.029764
     8  C    0.520471   4.905768   0.520152  -0.000059   0.000003   0.003956
     9  C   -0.035657   0.520152   5.054455  -0.001045  -0.000075   0.000086
    10  H    0.000005  -0.000059  -0.001045   0.388259   0.000681   0.000003
    11  H    0.000005   0.000003  -0.000075   0.000681   0.520027  -0.000001
    12  H   -0.029764   0.003956   0.000086   0.000003  -0.000001   0.534974
    13  H    0.359524  -0.039650   0.004152   0.000000   0.000000  -0.004004
    14  H   -0.037507   0.359028  -0.038503  -0.000002   0.000000  -0.000116
    15  H    0.003957  -0.038043   0.351578   0.001768  -0.000001   0.000012
    16  O    0.000379   0.000001  -0.000001   0.000000   0.000022   0.032890
    17  H   -0.000016   0.000000   0.000000   0.000000   0.000000  -0.001326
    18  H   -0.000070  -0.000004  -0.000009  -0.000004  -0.000137  -0.003527
              13         14         15         16         17         18
     1  N   -0.000091   0.000002  -0.000128  -0.018122   0.002407   0.059967
     2  C    0.002442   0.000844   0.003446  -0.003298  -0.000029  -0.002695
     3  C    0.000823   0.002365  -0.039361   0.000007  -0.000002   0.000545
     4  N    0.000003  -0.000106  -0.005188  -0.000009   0.000000   0.000270
     5  C    0.000004   0.000003  -0.000203   0.000493   0.000021  -0.002193
     6  C   -0.035985   0.003768   0.000240  -0.005362   0.000887  -0.000763
     7  C    0.359524  -0.037507   0.003957   0.000379  -0.000016  -0.000070
     8  C   -0.039650   0.359028  -0.038043   0.000001   0.000000  -0.000004
     9  C    0.004152  -0.038503   0.351578  -0.000001   0.000000  -0.000009
    10  H    0.000000  -0.000002   0.001768   0.000000   0.000000  -0.000004
    11  H    0.000000   0.000000  -0.000001   0.000022   0.000000  -0.000137
    12  H   -0.004004  -0.000116   0.000012   0.032890  -0.001326  -0.003527
    13  H    0.567596  -0.004460  -0.000158  -0.000004   0.000001   0.000001
    14  H   -0.004460   0.570992  -0.004249   0.000000   0.000000   0.000000
    15  H   -0.000158  -0.004249   0.578355   0.000000   0.000000   0.000000
    16  O   -0.000004   0.000000   0.000000   8.352344   0.231986   0.213862
    17  H    0.000001   0.000000   0.000000   0.231986   0.424271  -0.023209
    18  H    0.000001   0.000000   0.000000   0.213862  -0.023209   0.342395
 Mulliken charges:
               1
     1  N   -0.553402
     2  C    0.240059
     3  C    0.344066
     4  N   -0.689671
     5  C    0.234223
     6  C   -0.198120
     7  C   -0.164810
     8  C   -0.164022
     9  C   -0.186337
    10  H    0.343318
    11  H    0.185774
    12  H    0.187809
    13  H    0.149804
    14  H    0.147942
    15  H    0.147974
    16  O   -0.805188
    17  H    0.365009
    18  H    0.415571
 Sum of Mulliken charges =   0.00000
 Mulliken charges with hydrogens summed into heavy atoms:
               1
     1  N   -0.553402
     2  C    0.240059
     3  C    0.344066
     4  N   -0.346352
     5  C    0.419998
     6  C   -0.010311
     7  C   -0.015006
     8  C   -0.016080
     9  C   -0.038364
    16  O   -0.024608
 Electronic spatial extent (au):  <R**2>=           1529.1564
 Charge=              0.0000 electrons
 Dipole moment (field-independent basis, Debye):
    X=             -3.7905    Y=              4.0327    Z=              1.4552  Tot=              5.7226
 Quadrupole moment (field-independent basis, Debye-Ang):
   XX=            -62.8644   YY=            -44.0215   ZZ=            -59.7587
   XY=              2.5868   XZ=              5.1350   YZ=             -1.8881
 Traceless Quadrupole moment (field-independent basis, Debye-Ang):
   XX=             -7.3162   YY=             11.5267   ZZ=             -4.2105
   XY=              2.5868   XZ=              5.1350   YZ=             -1.8881
 Octapole moment (field-independent basis, Debye-Ang**2):
  XXX=            -38.1131  YYY=             37.4055  ZZZ=              2.0819  XYY=             -8.6267
  XXY=             20.5337  XXZ=             20.1867  XZZ=             14.3618  YZZ=             -0.3714
  YYZ=              3.1954  XYZ=             -7.9041
 Hexadecapole moment (field-independent basis, Debye-Ang**3):
 XXXX=          -1212.3004 YYYY=           -616.8092 ZZZZ=            -60.2114 XXXY=             40.2281
 XXXZ=             70.9415 YYYX=            -10.2870 YYYZ=             -3.0424 ZZZX=              7.6798
 ZZZY=             -2.8994 XXYY=           -298.2154 XXZZ=           -187.9108 YYZZ=           -147.3337
 XXYZ=            -27.5522 YYXZ=             10.3969 ZZXY=            -16.2914
 N-N= 4.894682220786D+02 E-N=-2.041284709101D+03  KE= 4.523707156252D+02
 Calling FoFJK, ICntrl=      2527 FMM=F ISym2X=0 I1Cent= 0 IOpClX= 0 NMat=1 NMatS=1 NMatT=0.
 ***** Axes restored to original set *****
 -------------------------------------------------------------------
 Center     Atomic                   Forces (Hartrees/Bohr)
 Number     Number              X              Y              Z
 -------------------------------------------------------------------
      1        7          -0.001920435   -0.002348360   -0.001580823
      2        6          -0.001408221   -0.000654949   -0.002574378
      3        6           0.001335737    0.002004394    0.000808070
      4        7          -0.000213563   -0.000859831    0.000478670
      5        6           0.000297568   -0.000269173    0.000995867
      6        6           0.000846578    0.000638644    0.001359295
      7        6           0.000657996    0.001264660    0.000156195
      8        6          -0.000439214    0.000348610   -0.001223450
      9        6          -0.000772160   -0.000576710   -0.001143840
     10        1           0.001705831    0.002244569    0.001440072
     11        1           0.000504749    0.003843648   -0.002915344
     12        1          -0.002336377   -0.001433414   -0.003726411
     13        1          -0.001506196   -0.003958192    0.000713602
     14        1           0.000739230   -0.002006841    0.003740248
     15        1           0.002256419    0.001936331    0.003010537
     16        8           0.000057166   -0.001714926   -0.001221165
     17        1          -0.001429793    0.000407281    0.000649011
     18        1           0.001624686    0.001134259    0.001033844
 -------------------------------------------------------------------
 Cartesian Forces:  Max     0.003958192 RMS     0.001723281

 GradGradGradGradGradGradGradGradGradGradGradGradGradGradGradGradGradGrad
 Berny optimization.
 FormGI is forming the generalized inverse of G from B-inverse, IUseBI=4.
 Internal  Forces:  Max     0.004850046 RMS     0.001499292
 Search for a local minimum.
 Step number   1 out of a maximum of  101
 All quantities printed in internal units (Hartrees-Bohrs-Radians)
 Mixed Optimization -- RFO/linear search
 Second derivative matrix not updated -- first step.
 ITU=  0
     Eigenvalues ---    0.00230   0.01126   0.01824   0.01838   0.01857
     Eigenvalues ---    0.01868   0.01895   0.01931   0.01973   0.01981
     Eigenvalues ---    0.02047   0.02050   0.02052   0.02201   0.02418
     Eigenvalues ---    0.04723   0.15989   0.16000   0.16000   0.16000
     Eigenvalues ---    0.16000   0.16000   0.16000   0.16000   0.22000
     Eigenvalues ---    0.22175   0.22659   0.24020   0.24657   0.25000
     Eigenvalues ---    0.34131   0.34178   0.34191   0.34205   0.34683
     Eigenvalues ---    0.36459   0.40999   0.41525   0.42059   0.44179
     Eigenvalues ---    0.44670   0.44987   0.45447   0.45941   0.47479
     Eigenvalues ---    0.49011   0.51764   0.58656
 RFO step:  Lambda=-5.46981666D-04 EMin= 2.30000000D-03
 Linear search not attempted -- first point.
 Iteration  1 RMS(Cart)=  0.01784806 RMS(Int)=  0.00044744
 Iteration  2 RMS(Cart)=  0.00041660 RMS(Int)=  0.00000103
 Iteration  3 RMS(Cart)=  0.00000007 RMS(Int)=  0.00000103
 Variable       Old X    -DE/DX   Delta X   Delta X   Delta X     New X
                                 (Linear)    (Quad)   (Total)
    R1        2.64170  -0.00067   0.00000  -0.00130  -0.00130   2.64039
    R2        2.49704  -0.00382   0.00000  -0.00638  -0.00637   2.49067
    R3        3.67561   0.00036   0.00000   0.00748   0.00748   3.68309
    R4        2.69177  -0.00376   0.00000  -0.00856  -0.00856   2.68320
    R5        2.66060  -0.00230   0.00000  -0.00513  -0.00513   2.65547
    R6        2.63240  -0.00194   0.00000  -0.00410  -0.00410   2.62830
    R7        2.65355  -0.00292   0.00000  -0.00649  -0.00649   2.64706
    R8        2.61025  -0.00292   0.00000  -0.00625  -0.00625   2.60399
    R9        1.92361  -0.00316   0.00000  -0.00708  -0.00708   1.91653
   R10        2.06192  -0.00485   0.00000  -0.01396  -0.01396   2.04796
   R11        2.64397  -0.00318   0.00000  -0.00695  -0.00695   2.63703
   R12        2.07110  -0.00458   0.00000  -0.01339  -0.01339   2.05771
   R13        2.68035  -0.00283   0.00000  -0.00667  -0.00667   2.67367
   R14        2.07009  -0.00429   0.00000  -0.01254  -0.01254   2.05755
   R15        2.64880  -0.00332   0.00000  -0.00736  -0.00736   2.64144
   R16        2.07031  -0.00431   0.00000  -0.01259  -0.01259   2.05772
   R17        2.06985  -0.00423   0.00000  -0.01235  -0.01235   2.05750
   R18        1.84826  -0.00161   0.00000  -0.00311  -0.00311   1.84515
   R19        1.87577  -0.00197   0.00000  -0.00402  -0.00402   1.87175
    A1        1.83148  -0.00039   0.00000  -0.00189  -0.00189   1.82959
    A2        1.86043   0.00104   0.00000   0.00619   0.00619   1.86662
    A3        2.59099  -0.00065   0.00000  -0.00433  -0.00433   2.58666
    A4        1.92505   0.00004   0.00000   0.00084   0.00084   1.92589
    A5        2.25432   0.00027   0.00000   0.00049   0.00049   2.25481
    A6        2.10381  -0.00032   0.00000  -0.00133  -0.00133   2.10248
    A7        1.82196  -0.00021   0.00000  -0.00024  -0.00024   1.82171
    A8        2.13436   0.00058   0.00000   0.00220   0.00220   2.13656
    A9        2.32686  -0.00037   0.00000  -0.00196  -0.00196   2.32491
   A10        1.87147   0.00007   0.00000  -0.00008  -0.00008   1.87139
   A11        2.21113   0.00003   0.00000   0.00044   0.00044   2.21157
   A12        2.20057  -0.00010   0.00000  -0.00037  -0.00037   2.20021
   A13        1.97481   0.00049   0.00000   0.00137   0.00137   1.97618
   A14        2.18596  -0.00017   0.00000  -0.00018  -0.00018   2.18578
   A15        2.12242  -0.00033   0.00000  -0.00119  -0.00119   2.12122
   A16        2.04829  -0.00015   0.00000  -0.00039  -0.00039   2.04790
   A17        2.07765   0.00077   0.00000   0.00451   0.00451   2.08215
   A18        2.15723  -0.00062   0.00000  -0.00412  -0.00412   2.15311
   A19        2.12187   0.00016   0.00000   0.00076   0.00076   2.12263
   A20        2.08518  -0.00003   0.00000  -0.00010  -0.00010   2.08508
   A21        2.07613  -0.00012   0.00000  -0.00066  -0.00066   2.07547
   A22        2.12622  -0.00001   0.00000  -0.00010  -0.00010   2.12612
   A23        2.08093  -0.00002   0.00000  -0.00012  -0.00012   2.08081
   A24        2.07603   0.00003   0.00000   0.00022   0.00022   2.07625
   A25        2.03180  -0.00026   0.00000  -0.00114  -0.00114   2.03066
   A26        2.13298   0.00015   0.00000   0.00071   0.00071   2.13369
   A27        2.11840   0.00011   0.00000   0.00043   0.00043   2.11883
   A28        1.78497  -0.00009   0.00000  -0.00058  -0.00058   1.78440
   A29        2.76089   0.00030   0.00000   0.00119   0.00119   2.76208
    D1       -0.00239  -0.00002   0.00000  -0.00069  -0.00069  -0.00308
    D2        3.13842  -0.00004   0.00000  -0.00202  -0.00202   3.13640
    D3       -3.12592   0.00002   0.00000   0.00030   0.00030  -3.12561
    D4        0.01490  -0.00001   0.00000  -0.00103  -0.00103   0.01387
    D5        0.00236   0.00002   0.00000   0.00093   0.00093   0.00329
    D6       -3.13886   0.00001   0.00000   0.00047   0.00047  -3.13840
    D7        3.11085   0.00000   0.00000  -0.00059  -0.00058   3.11027
    D8       -0.03037  -0.00002   0.00000  -0.00105  -0.00104  -0.03141
    D9       -0.39365  -0.00014   0.00000  -0.04291  -0.04291  -0.43656
   D10        2.78131  -0.00010   0.00000  -0.04131  -0.04131   2.74001
   D11        0.00156   0.00001   0.00000   0.00021   0.00021   0.00177
   D12       -3.13953  -0.00001   0.00000  -0.00052  -0.00052  -3.14005
   D13       -3.13934   0.00003   0.00000   0.00141   0.00141  -3.13793
   D14        0.00276   0.00001   0.00000   0.00068   0.00068   0.00344
   D15        3.14020   0.00002   0.00000   0.00099   0.00099   3.14120
   D16       -0.00763   0.00000   0.00000   0.00032   0.00032  -0.00730
   D17       -0.00223  -0.00001   0.00000  -0.00046  -0.00046  -0.00269
   D18        3.13312  -0.00003   0.00000  -0.00113  -0.00113   3.13199
   D19       -0.00013   0.00001   0.00000   0.00033   0.00033   0.00020
   D20        3.13668  -0.00001   0.00000  -0.00042  -0.00042   3.13626
   D21        3.14087   0.00002   0.00000   0.00118   0.00118  -3.14113
   D22       -0.00550   0.00001   0.00000   0.00043   0.00043  -0.00508
   D23       -0.00087  -0.00001   0.00000  -0.00064  -0.00064  -0.00151
   D24        3.14148   0.00000   0.00000   0.00014   0.00014  -3.14157
   D25        3.14140  -0.00003   0.00000  -0.00161  -0.00161   3.13978
   D26        0.00056  -0.00002   0.00000  -0.00083  -0.00083  -0.00027
   D27       -0.00145  -0.00002   0.00000  -0.00083  -0.00083  -0.00228
   D28        3.13979   0.00000   0.00000  -0.00039  -0.00039   3.13940
   D29       -3.13829   0.00000   0.00000  -0.00009  -0.00009  -3.13838
   D30        0.00295   0.00001   0.00000   0.00036   0.00036   0.00330
   D31       -0.00001   0.00001   0.00000   0.00026   0.00026   0.00026
   D32        3.13958   0.00000   0.00000  -0.00013  -0.00013   3.13944
   D33       -3.13505   0.00002   0.00000   0.00093   0.00093  -3.13413
   D34        0.00454   0.00001   0.00000   0.00053   0.00053   0.00506
   D35        0.00191  -0.00001   0.00000  -0.00026  -0.00026   0.00164
   D36        3.14143  -0.00001   0.00000  -0.00029  -0.00029   3.14114
   D37       -3.13769   0.00000   0.00000   0.00013   0.00013  -3.13756
   D38        0.00184   0.00000   0.00000   0.00010   0.00010   0.00194
   D39       -0.00142   0.00001   0.00000   0.00043   0.00043  -0.00099
   D40        3.13942  -0.00001   0.00000  -0.00034  -0.00034   3.13908
   D41       -3.14095   0.00001   0.00000   0.00047   0.00047  -3.14049
   D42       -0.00011  -0.00001   0.00000  -0.00031  -0.00031  -0.00042
   D43       -1.21896  -0.00031   0.00000  -0.02661  -0.02661  -1.24556
         Item               Value     Threshold  Converged?
 Maximum Force            0.004850     0.000450     NO 
 RMS     Force            0.001499     0.000300     NO 
 Maximum Displacement     0.102052     0.001800     NO 
 RMS     Displacement     0.017869     0.001200     NO 
 Predicted change in Energy=-2.750662D-04
 GradGradGradGradGradGradGradGradGradGradGradGradGradGradGradGradGradGrad

                          Input orientation:                          
 ---------------------------------------------------------------------
 Center     Atomic      Atomic             Coordinates (Angstroms)
 Number     Number       Type             X           Y           Z
 ---------------------------------------------------------------------
      1          7           0       -0.334217   -0.244882    1.351499
      2          6           0       -0.452865    0.583495    0.232579
      3          6           0       -1.208134   -0.062102   -0.781749
      4          7           0       -1.537548   -1.297250   -0.233733
      5          6           0       -0.991571   -1.341287    1.030696
      6          6           0        0.053366    1.878408    0.028731
      7          6           0       -0.215288    2.485612   -1.198633
      8          6           0       -0.966863    1.829659   -2.201954
      9          6           0       -1.479873    0.542843   -2.015581
     10          1           0       -2.081862   -2.030526   -0.674871
     11          1           0       -1.111159   -2.208242    1.669891
     12          1           0        0.622450    2.359201    0.822881
     13          1           0        0.158665    3.489596   -1.392742
     14          1           0       -1.153677    2.340206   -3.145429
     15          1           0       -2.059374    0.045300   -2.791517
     16          8           0        1.325571    1.409078    3.047209
     17          1           0        2.187536    1.038242    2.777246
     18          1           0        0.687844    0.743648    2.684478
 ---------------------------------------------------------------------
                    Distance matrix (angstroms):
                    1          2          3          4          5
     1  N    0.000000
     2  C    1.397236   0.000000
     3  C    2.312550   1.419890   0.000000
     4  N    2.251321   2.220627   1.390836   0.000000
     5  C    1.318004   2.152204   2.228940   1.377973   0.000000
     6  C    2.531462   1.405213   2.452314   3.561559   3.530194
     7  C    3.738037   2.392250   2.765933   4.121826   4.496408
     8  C    4.163051   2.782817   2.377805   3.738601   4.528304
     9  C    3.642838   2.471967   1.400764   2.562079   3.614995
    10  H    3.216980   3.210950   2.156273   1.014186   2.138397
    11  H    2.135367   3.208273   3.259733   2.153021   1.083735
    12  H    2.824163   2.158215   3.433451   4.376260   4.042507
    13  H    4.660485   3.385419   3.854350   5.209063   5.525715
    14  H    5.251339   3.871447   3.370613   4.675084   5.569532
    15  H    4.497217   3.466364   2.185249   2.935473   4.203824
    16  O    2.892389   3.430243   4.821302   5.127011   4.123103
    17  H    3.168343   3.695110   5.040613   5.328861   4.338124
    18  H    1.949008   2.708999   4.032208   4.199237   3.146806
                    6          7          8          9         10
     6  C    0.000000
     7  C    1.395455   0.000000
     8  C    2.453406   1.414847   0.000000
     9  C    2.883360   2.457830   1.397787   0.000000
    10  H    4.509326   4.914664   4.298399   2.963464   0.000000
    11  H    4.555243   5.573444   5.596128   4.613797   2.543965
    12  H    1.088895   2.191873   3.457739   3.971874   5.369010
    13  H    2.151185   1.088808   2.162644   3.428715   6.000587
    14  H    3.427170   2.166040   1.088899   2.147900   5.105730
    15  H    3.972122   3.448631   2.173729   1.088782   2.964752
    16  O    3.309077   4.643312   5.743332   5.852582   6.106992
    17  H    3.579790   4.865805   5.947185   6.055286   6.289849
    18  H    2.956897   4.350706   5.272068   5.179756   5.162610
                   11         12         13         14         15
    11  H    0.000000
    12  H    4.958261   0.000000
    13  H    6.592233   2.530193   0.000000
    14  H    6.624009   4.347697   2.472903   0.000000
    15  H    5.087409   5.060651   4.328908   2.492415   0.000000
    16  O    4.573801   2.518878   5.040178   6.735164   6.885380
    17  H    4.758916   2.830895   5.245403   6.923647   7.073422
    18  H    3.602701   2.465731   4.944086   6.318862   6.166151
                   16         17         18
    16  O    0.000000
    17  H    0.976413   0.000000
    18  H    0.990488   1.531165   0.000000
 Stoichiometry    C7H8N2O
 Framework group  C1[X(C7H8N2O)]
 Deg. of freedom    48
 Full point group                 C1      NOp   1
 Largest Abelian subgroup         C1      NOp   1
 Largest concise Abelian subgroup C1      NOp   1
                         Standard orientation:                         
 ---------------------------------------------------------------------
 Center     Atomic      Atomic             Coordinates (Angstroms)
 Number     Number       Type             X           Y           Z
 ---------------------------------------------------------------------
      1          7           0        1.332661    0.811856   -0.050735
      2          6           0        0.200854   -0.007240   -0.031633
      3          6           0       -0.978789    0.781718    0.013925
      4          7           0       -0.516859    2.093595    0.019011
      5          6           0        0.859521    2.041674   -0.022128
      6          6           0        0.119398   -1.409919   -0.053541
      7          6           0       -1.154733   -1.978332   -0.025417
      8          6           0       -2.322043   -1.180307    0.022920
      9          6           0       -2.259883    0.215953    0.043018
     10          1           0       -1.082100    2.935318    0.043061
     11          1           0        1.460832    2.943262   -0.028987
     12          1           0        1.035877   -1.996279   -0.097598
     13          1           0       -1.258250   -3.062063   -0.043170
     14          1           0       -3.296897   -1.665025    0.043154
     15          1           0       -3.162700    0.823532    0.077916
     16          8           0        3.421029   -1.189205   -0.031034
     17          1           0        3.554541   -1.220031    0.935716
     18          1           0        2.883896   -0.364521   -0.142618
 ---------------------------------------------------------------------
 Rotational constants (GHZ):      1.8330391      1.1806912      0.7202862
 Standard basis: 6-31G(d) (6D, 7F)
 There are   166 symmetry adapted cartesian basis functions of A   symmetry.
 There are   166 symmetry adapted basis functions of A   symmetry.
   166 basis functions,   312 primitive gaussians,   166 cartesian basis functions
    36 alpha electrons       36 beta electrons
       nuclear repulsion energy       490.2862803308 Hartrees.
 NAtoms=   18 NActive=   18 NUniq=   18 SFac= 1.00D+00 NAtFMM=   60 NAOKFM=F Big=F
 Integral buffers will be    131072 words long.
 Raffenetti 2 integral format.
 Two-electron integral symmetry is turned on.
 One-electron integrals computed using PRISM.
 NBasis=   166 RedAO= T EigKep=  4.06D-04  NBF=   166
 NBsUse=   166 1.00D-06 EigRej= -1.00D+00 NBFU=   166
 Initial guess from the checkpoint file:  "Bzm.H2O.chk"
 B after Tr=     0.000000    0.000000    0.000000
         Rot=    1.000000    0.000334   -0.000264    0.000682 Ang=   0.09 deg.
 ExpMin= 1.61D-01 ExpMax= 5.48D+03 ExpMxC= 8.25D+02 IAcc=2 IRadAn=         4 AccDes= 0.00D+00
 Harris functional with IExCor= 1009 and IRadAn=       4 diagonalized for initial guess.
 HarFok:  IExCor= 1009 AccDes= 0.00D+00 IRadAn=         4 IDoV= 1 UseB2=F ITyADJ=14
 ICtDFT=  3500011 ScaDFX=  1.000000  1.000000  1.000000  1.000000
 FoFCou: FMM=F IPFlag=           0 FMFlag=      100000 FMFlg1=           0
         NFxFlg=           0 DoJE=T BraDBF=F KetDBF=T FulRan=T
         wScrn=  0.000000 ICntrl=     500 IOpCl=  0 I1Cent=   200000004 NGrid=           0
         NMat0=    1 NMatS0=      1 NMatT0=    0 NMatD0=    1 NMtDS0=    0 NMtDT0=    0
 Petite list used in FoFCou.
 Keep J ints in memory in canonical form, NReq=98505695.
 Requested convergence on RMS density matrix=1.00D-08 within 128 cycles.
 Requested convergence on MAX density matrix=1.00D-06.
 Requested convergence on             energy=1.00D-06.
 No special actions if energy rises.
 Integral accuracy reduced to 1.0D-05 until final iterations.
 Initial convergence to 1.0D-05 achieved.  Increase integral accuracy.
 SCF Done:  E(RTPSS-TPSS) =  -456.362205858     A.U. after   12 cycles
            NFock= 12  Conv=0.60D-08     -V/T= 2.0085
 Calling FoFJK, ICntrl=      2527 FMM=F ISym2X=0 I1Cent= 0 IOpClX= 0 NMat=1 NMatS=1 NMatT=0.
 ***** Axes restored to original set *****
 -------------------------------------------------------------------
 Center     Atomic                   Forces (Hartrees/Bohr)
 Number     Number              X              Y              Z
 -------------------------------------------------------------------
      1        7          -0.000304612    0.000146856   -0.000241703
      2        6          -0.000149836   -0.000007612   -0.000461696
      3        6           0.000413888    0.000331930    0.000472898
      4        7          -0.000219991   -0.000506705    0.000123931
      5        6           0.000117271    0.000081858    0.000001431
      6        6           0.000047497   -0.000221720    0.000638192
      7        6           0.000129698    0.000353166    0.000013987
      8        6          -0.000077057    0.000115286   -0.000323085
      9        6          -0.000247204   -0.000231469   -0.000231161
     10        1          -0.000023979   -0.000050201    0.000000703
     11        1          -0.000030151   -0.000290769    0.000180980
     12        1           0.000264379    0.000197903   -0.000245105
     13        1           0.000053240    0.000141997   -0.000025495
     14        1           0.000002633    0.000104021   -0.000122577
     15        1          -0.000061748   -0.000072030   -0.000067326
     16        8          -0.000360075   -0.000447081   -0.000155317
     17        1          -0.000096214    0.000220877    0.000021700
     18        1           0.000542260    0.000133692    0.000419644
 -------------------------------------------------------------------
 Cartesian Forces:  Max     0.000638192 RMS     0.000250938

 GradGradGradGradGradGradGradGradGradGradGradGradGradGradGradGradGradGrad
 Berny optimization.
 Using GEDIIS/GDIIS optimizer.
 FormGI is forming the generalized inverse of G from B-inverse, IUseBI=4.
 Internal  Forces:  Max     0.000558619 RMS     0.000180284
 Search for a local minimum.
 Step number   2 out of a maximum of  101
 All quantities printed in internal units (Hartrees-Bohrs-Radians)
 Mixed Optimization -- En-DIIS/RFO-DIIS
 Update second derivatives using D2CorX and points    1    2
 DE= -2.55D-04 DEPred=-2.75D-04 R= 9.28D-01
 TightC=F SS=  1.41D+00  RLast= 7.59D-02 DXNew= 5.0454D-01 2.2762D-01
 Trust test= 9.28D-01 RLast= 7.59D-02 DXMaxT set to 3.00D-01
 ITU=  1  0
 Use linear search instead of GDIIS.
     Eigenvalues ---    0.00244   0.01145   0.01827   0.01839   0.01856
     Eigenvalues ---    0.01869   0.01895   0.01931   0.01973   0.01982
     Eigenvalues ---    0.02048   0.02050   0.02052   0.02201   0.02417
     Eigenvalues ---    0.04697   0.15470   0.15995   0.16000   0.16000
     Eigenvalues ---    0.16000   0.16000   0.16000   0.16013   0.21997
     Eigenvalues ---    0.22185   0.22652   0.24059   0.24589   0.24986
     Eigenvalues ---    0.33758   0.34183   0.34191   0.34204   0.34919
     Eigenvalues ---    0.36413   0.40977   0.41638   0.42174   0.44317
     Eigenvalues ---    0.44508   0.45076   0.45577   0.46817   0.47802
     Eigenvalues ---    0.49124   0.51673   0.58739
 RFO step:  Lambda=-3.97603274D-05 EMin= 2.44059572D-03
 Quartic linear search produced a step of -0.06461.
 Iteration  1 RMS(Cart)=  0.01658089 RMS(Int)=  0.00065436
 Iteration  2 RMS(Cart)=  0.00064222 RMS(Int)=  0.00000167
 Iteration  3 RMS(Cart)=  0.00000051 RMS(Int)=  0.00000165
 Variable       Old X    -DE/DX   Delta X   Delta X   Delta X     New X
                                 (Linear)    (Quad)   (Total)
    R1        2.64039   0.00032   0.00008   0.00043   0.00051   2.64091
    R2        2.49067   0.00010   0.00041  -0.00079  -0.00037   2.49029
    R3        3.68309   0.00019  -0.00048   0.00489   0.00441   3.68750
    R4        2.68320  -0.00007   0.00055  -0.00144  -0.00089   2.68232
    R5        2.65547   0.00034   0.00033  -0.00005   0.00028   2.65575
    R6        2.62830   0.00056   0.00027   0.00056   0.00082   2.62912
    R7        2.64706   0.00044   0.00042  -0.00004   0.00038   2.64744
    R8        2.60399  -0.00004   0.00040  -0.00097  -0.00057   2.60342
    R9        1.91653   0.00005   0.00046  -0.00092  -0.00046   1.91607
   R10        2.04796   0.00034   0.00090  -0.00109  -0.00019   2.04777
   R11        2.63703   0.00044   0.00045  -0.00008   0.00036   2.63739
   R12        2.05771   0.00005   0.00087  -0.00180  -0.00094   2.05677
   R13        2.67367   0.00045   0.00043   0.00007   0.00050   2.67418
   R14        2.05755   0.00015   0.00081  -0.00139  -0.00058   2.05697
   R15        2.64144   0.00046   0.00048  -0.00009   0.00039   2.64182
   R16        2.05772   0.00015   0.00081  -0.00139  -0.00058   2.05714
   R17        2.05750   0.00011   0.00080  -0.00147  -0.00068   2.05683
   R18        1.84515  -0.00017   0.00020  -0.00076  -0.00056   1.84459
   R19        1.87175  -0.00050   0.00026  -0.00153  -0.00127   1.87048
    A1        1.82959   0.00020   0.00012   0.00047   0.00059   1.83018
    A2        1.86662   0.00032  -0.00040   0.00301   0.00261   1.86923
    A3        2.58666  -0.00052   0.00028  -0.00344  -0.00316   2.58350
    A4        1.92589  -0.00021  -0.00005  -0.00068  -0.00073   1.92516
    A5        2.25481   0.00011  -0.00003   0.00056   0.00053   2.25534
    A6        2.10248   0.00010   0.00009   0.00012   0.00020   2.10268
    A7        1.82171   0.00013   0.00002   0.00054   0.00056   1.82227
    A8        2.13656   0.00006  -0.00014   0.00044   0.00029   2.13686
    A9        2.32491  -0.00019   0.00013  -0.00098  -0.00085   2.32406
   A10        1.87139  -0.00009   0.00001  -0.00033  -0.00033   1.87107
   A11        2.21157   0.00007  -0.00003   0.00037   0.00034   2.21191
   A12        2.20021   0.00002   0.00002  -0.00003  -0.00001   2.20020
   A13        1.97618  -0.00004  -0.00009   0.00001  -0.00008   1.97610
   A14        2.18578   0.00004   0.00001   0.00019   0.00020   2.18598
   A15        2.12122   0.00000   0.00008  -0.00020  -0.00012   2.12110
   A16        2.04790  -0.00004   0.00003  -0.00024  -0.00021   2.04769
   A17        2.08215   0.00036  -0.00029   0.00275   0.00245   2.08461
   A18        2.15311  -0.00032   0.00027  -0.00249  -0.00222   2.15088
   A19        2.12263  -0.00002  -0.00005   0.00014   0.00009   2.12272
   A20        2.08508   0.00001   0.00001  -0.00005  -0.00004   2.08504
   A21        2.07547   0.00001   0.00004  -0.00009  -0.00005   2.07543
   A22        2.12612  -0.00009   0.00001  -0.00024  -0.00024   2.12589
   A23        2.08081   0.00000   0.00001  -0.00018  -0.00017   2.08064
   A24        2.07625   0.00009  -0.00001   0.00042   0.00041   2.07665
   A25        2.03066  -0.00002   0.00007  -0.00021  -0.00013   2.03053
   A26        2.13369  -0.00001  -0.00005  -0.00001  -0.00006   2.13363
   A27        2.11883   0.00003  -0.00003   0.00022   0.00019   2.11903
   A28        1.78440   0.00025   0.00004   0.00135   0.00139   1.78579
   A29        2.76208   0.00012  -0.00008   0.00061   0.00053   2.76261
    D1       -0.00308   0.00009   0.00004   0.00439   0.00444   0.00136
    D2        3.13640   0.00011   0.00013   0.00528   0.00541  -3.14137
    D3       -3.12561   0.00008  -0.00002   0.00319   0.00316  -3.12245
    D4        0.01387   0.00010   0.00007   0.00408   0.00414   0.01801
    D5        0.00329  -0.00009  -0.00006  -0.00430  -0.00436  -0.00107
    D6       -3.13840  -0.00004  -0.00003  -0.00189  -0.00192  -3.14031
    D7        3.11027  -0.00004   0.00004  -0.00188  -0.00185   3.10842
    D8       -0.03141   0.00001   0.00007   0.00053   0.00059  -0.03082
    D9       -0.43656   0.00021   0.00277   0.06880   0.07157  -0.36499
   D10        2.74001   0.00016   0.00267   0.06638   0.06905   2.80906
   D11        0.00177  -0.00006  -0.00001  -0.00289  -0.00290  -0.00113
   D12       -3.14005  -0.00005   0.00003  -0.00235  -0.00232   3.14082
   D13       -3.13793  -0.00007  -0.00009  -0.00368  -0.00378   3.14148
   D14        0.00344  -0.00006  -0.00004  -0.00315  -0.00320   0.00025
   D15        3.14120   0.00004  -0.00006   0.00182   0.00175  -3.14024
   D16       -0.00730   0.00011  -0.00002   0.00526   0.00525  -0.00206
   D17       -0.00269   0.00005   0.00003   0.00279   0.00281   0.00012
   D18        3.13199   0.00013   0.00007   0.00623   0.00631   3.13830
   D19        0.00020   0.00000  -0.00002   0.00028   0.00026   0.00047
   D20        3.13626   0.00002   0.00003   0.00102   0.00105   3.13731
   D21       -3.14113  -0.00001  -0.00008  -0.00033  -0.00041  -3.14154
   D22       -0.00508   0.00001  -0.00003   0.00041   0.00038  -0.00470
   D23       -0.00151   0.00003   0.00004   0.00125   0.00130  -0.00022
   D24       -3.14157   0.00001  -0.00001   0.00044   0.00043  -3.14114
   D25        3.13978   0.00004   0.00010   0.00196   0.00207  -3.14133
   D26       -0.00027   0.00002   0.00005   0.00114   0.00120   0.00093
   D27       -0.00228   0.00006   0.00005   0.00261   0.00267   0.00039
   D28        3.13940   0.00001   0.00002   0.00030   0.00033   3.13973
   D29       -3.13838   0.00004   0.00001   0.00188   0.00188  -3.13650
   D30        0.00330  -0.00001  -0.00002  -0.00043  -0.00046   0.00284
   D31        0.00026  -0.00002  -0.00002  -0.00075  -0.00077  -0.00051
   D32        3.13944   0.00001   0.00001   0.00048   0.00049   3.13994
   D33       -3.13413  -0.00010  -0.00006  -0.00437  -0.00442  -3.13855
   D34        0.00506  -0.00007  -0.00003  -0.00313  -0.00316   0.00190
   D35        0.00164  -0.00002   0.00002  -0.00110  -0.00108   0.00056
   D36        3.14114   0.00001   0.00002   0.00052   0.00054  -3.14151
   D37       -3.13756  -0.00005  -0.00001  -0.00233  -0.00234  -3.13990
   D38        0.00194  -0.00001  -0.00001  -0.00071  -0.00071   0.00123
   D39       -0.00099   0.00001  -0.00003   0.00084   0.00081  -0.00018
   D40        3.13908   0.00003   0.00002   0.00165   0.00167   3.14075
   D41       -3.14049  -0.00002  -0.00003  -0.00078  -0.00081  -3.14130
   D42       -0.00042   0.00000   0.00002   0.00003   0.00005  -0.00037
   D43       -1.24556   0.00018   0.00172   0.01061   0.01233  -1.23323
         Item               Value     Threshold  Converged?
 Maximum Force            0.000559     0.000450     NO 
 RMS     Force            0.000180     0.000300     YES
 Maximum Displacement     0.109272     0.001800     NO 
 RMS     Displacement     0.016693     0.001200     NO 
 Predicted change in Energy=-2.163407D-05
 GradGradGradGradGradGradGradGradGradGradGradGradGradGradGradGradGradGrad

                          Input orientation:                          
 ---------------------------------------------------------------------
 Center     Atomic      Atomic             Coordinates (Angstroms)
 Number     Number       Type             X           Y           Z
 ---------------------------------------------------------------------
      1          7           0       -0.334584   -0.252349    1.351403
      2          6           0       -0.450576    0.578582    0.233759
      3          6           0       -1.209663   -0.062489   -0.779933
      4          7           0       -1.540891   -1.298890   -0.234742
      5          6           0       -0.992262   -1.347568    1.028040
      6          6           0        0.062014    1.871237    0.030442
      7          6           0       -0.207707    2.481905   -1.195187
      8          6           0       -0.965607    1.831183   -2.197530
      9          6           0       -1.482928    0.545744   -2.012040
     10          1           0       -2.087159   -2.029841   -0.676761
     11          1           0       -1.112122   -2.216092    1.664878
     12          1           0        0.639228    2.348180    0.820355
     13          1           0        0.171219    3.483729   -1.389095
     14          1           0       -1.152377    2.344113   -3.139364
     15          1           0       -2.065730    0.051515   -2.787120
     16          8           0        1.307976    1.407223    3.061406
     17          1           0        2.174999    1.096066    2.738526
     18          1           0        0.689170    0.728749    2.691964
 ---------------------------------------------------------------------
                    Distance matrix (angstroms):
                    1          2          3          4          5
     1  N    0.000000
     2  C    1.397508   0.000000
     3  C    2.311796   1.419421   0.000000
     4  N    2.250840   2.221076   1.391270   0.000000
     5  C    1.317805   2.152757   2.228779   1.377672   0.000000
     6  C    2.532162   1.405362   2.452175   3.562209   3.530921
     7  C    3.738631   2.392386   2.765916   4.122408   4.497014
     8  C    4.163439   2.783062   2.378054   3.739097   4.528739
     9  C    3.642581   2.471931   1.400967   2.562191   3.614896
    10  H    3.216279   3.211124   2.156645   1.013942   2.137906
    11  H    2.135210   3.208730   3.259544   2.152594   1.083635
    12  H    2.827202   2.159454   3.433750   4.378043   4.045176
    13  H    4.660949   3.385287   3.854034   5.209347   5.526090
    14  H    5.251418   3.871381   3.370746   4.675387   5.569686
    15  H    4.496285   3.465867   2.185097   2.934908   4.203000
    16  O    2.894183   3.431435   4.822286   5.128712   4.124870
    17  H    3.168650   3.665419   5.017742   5.327661   4.350708
    18  H    1.951340   2.713732   4.035553   4.201202   3.147531
                    6          7          8          9         10
     6  C    0.000000
     7  C    1.395648   0.000000
     8  C    2.453869   1.415113   0.000000
     9  C    2.883663   2.458081   1.397993   0.000000
    10  H    4.509710   4.914973   4.298619   2.963393   0.000000
    11  H    4.555901   5.573968   5.596437   4.613563   2.543357
    12  H    1.088398   2.190340   3.456936   3.971748   5.370438
    13  H    2.151080   1.088502   2.162603   3.428706   6.000596
    14  H    3.427249   2.165922   1.088591   2.148082   5.105850
    15  H    3.972070   3.448667   2.173731   1.088425   2.964138
    16  O    3.309754   4.644440   5.745027   5.854157   6.108539
    17  H    3.521266   4.803325   5.896478   6.020894   6.292970
    18  H    2.963495   4.357509   5.278333   5.184511   5.163926
                   11         12         13         14         15
    11  H    0.000000
    12  H    4.961152   0.000000
    13  H    6.592548   2.527879   0.000000
    14  H    6.624035   4.346175   2.472666   0.000000
    15  H    5.086423   5.060172   4.328801   2.492849   0.000000
    16  O    4.575542   2.520900   5.040938   6.736517   6.886589
    17  H    4.788349   2.757855   5.172361   6.868672   7.043269
    18  H    3.601618   2.475474   4.951084   6.324958   6.169966
                   16         17         18
    16  O    0.000000
    17  H    0.976115   0.000000
    18  H    0.989816   1.531267   0.000000
 Stoichiometry    C7H8N2O
 Framework group  C1[X(C7H8N2O)]
 Deg. of freedom    48
 Full point group                 C1      NOp   1
 Largest Abelian subgroup         C1      NOp   1
 Largest concise Abelian subgroup C1      NOp   1
                         Standard orientation:                         
 ---------------------------------------------------------------------
 Center     Atomic      Atomic             Coordinates (Angstroms)
 Number     Number       Type             X           Y           Z
 ---------------------------------------------------------------------
      1          7           0        1.331314    0.816203   -0.044232
      2          6           0        0.201513   -0.006161   -0.027012
      3          6           0       -0.979535    0.780230    0.011321
      4          7           0       -0.520831    2.093691    0.017954
      5          6           0        0.855560    2.044804   -0.015799
      6          6           0        0.123336   -1.409248   -0.043685
      7          6           0       -1.149966   -1.980239   -0.021239
      8          6           0       -2.319445   -1.184393    0.017415
      9          6           0       -2.259986    0.212231    0.034419
     10          1           0       -1.087894    2.933973    0.039029
     11          1           0        1.454745    2.947702   -0.019785
     12          1           0        1.039628   -1.995730   -0.076234
     13          1           0       -1.251082   -3.063950   -0.034727
     14          1           0       -3.293009   -1.671149    0.033974
     15          1           0       -3.163682    0.818169    0.063389
     16          8           0        3.425260   -1.181717   -0.043374
     17          1           0        3.506077   -1.274596    0.924945
     18          1           0        2.890898   -0.353280   -0.132178
 ---------------------------------------------------------------------
 Rotational constants (GHZ):      1.8315709      1.1813723      0.7201931
 Standard basis: 6-31G(d) (6D, 7F)
 There are   166 symmetry adapted cartesian basis functions of A   symmetry.
 There are   166 symmetry adapted basis functions of A   symmetry.
   166 basis functions,   312 primitive gaussians,   166 cartesian basis functions
    36 alpha electrons       36 beta electrons
       nuclear repulsion energy       490.2882128200 Hartrees.
 NAtoms=   18 NActive=   18 NUniq=   18 SFac= 1.00D+00 NAtFMM=   60 NAOKFM=F Big=F
 Integral buffers will be    131072 words long.
 Raffenetti 2 integral format.
 Two-electron integral symmetry is turned on.
 One-electron integrals computed using PRISM.
 NBasis=   166 RedAO= T EigKep=  4.06D-04  NBF=   166
 NBsUse=   166 1.00D-06 EigRej= -1.00D+00 NBFU=   166
 Initial guess from the checkpoint file:  "Bzm.H2O.chk"
 B after Tr=     0.000000    0.000000    0.000000
         Rot=    1.000000   -0.000376    0.000207   -0.000715 Ang=  -0.10 deg.
 ExpMin= 1.61D-01 ExpMax= 5.48D+03 ExpMxC= 8.25D+02 IAcc=2 IRadAn=         4 AccDes= 0.00D+00
 Harris functional with IExCor= 1009 and IRadAn=       4 diagonalized for initial guess.
 HarFok:  IExCor= 1009 AccDes= 0.00D+00 IRadAn=         4 IDoV= 1 UseB2=F ITyADJ=14
 ICtDFT=  3500011 ScaDFX=  1.000000  1.000000  1.000000  1.000000
 FoFCou: FMM=F IPFlag=           0 FMFlag=      100000 FMFlg1=           0
         NFxFlg=           0 DoJE=T BraDBF=F KetDBF=T FulRan=T
         wScrn=  0.000000 ICntrl=     500 IOpCl=  0 I1Cent=   200000004 NGrid=           0
         NMat0=    1 NMatS0=      1 NMatT0=    0 NMatD0=    1 NMtDS0=    0 NMtDT0=    0
 Petite list used in FoFCou.
 Keep J ints in memory in canonical form, NReq=98505695.
 Requested convergence on RMS density matrix=1.00D-08 within 128 cycles.
 Requested convergence on MAX density matrix=1.00D-06.
 Requested convergence on             energy=1.00D-06.
 No special actions if energy rises.
 Integral accuracy reduced to 1.0D-05 until final iterations.
 Initial convergence to 1.0D-05 achieved.  Increase integral accuracy.
 SCF Done:  E(RTPSS-TPSS) =  -456.362206373     A.U. after   11 cycles
            NFock= 11  Conv=0.61D-08     -V/T= 2.0085
 Calling FoFJK, ICntrl=      2527 FMM=F ISym2X=0 I1Cent= 0 IOpClX= 0 NMat=1 NMatS=1 NMatT=0.
 ***** Axes restored to original set *****
 -------------------------------------------------------------------
 Center     Atomic                   Forces (Hartrees/Bohr)
 Number     Number              X              Y              Z
 -------------------------------------------------------------------
      1        7           0.000522845    0.000175970   -0.000303242
      2        6          -0.000220558   -0.000046650    0.000115251
      3        6           0.000081443    0.000060082    0.000023428
      4        7          -0.000014151   -0.000089953   -0.000061304
      5        6          -0.000188727    0.000272561    0.000154777
      6        6          -0.000023971   -0.000302377   -0.000045952
      7        6           0.000032671   -0.000078982   -0.000031346
      8        6           0.000000543   -0.000051295    0.000034275
      9        6           0.000037100    0.000008151    0.000028739
     10        1          -0.000132925   -0.000167259   -0.000131814
     11        1          -0.000049697   -0.000310384    0.000270117
     12        1          -0.000086268    0.000303014    0.000329794
     13        1           0.000124579    0.000327813   -0.000058285
     14        1          -0.000074453    0.000187498   -0.000289602
     15        1          -0.000179039   -0.000165661   -0.000242274
     16        8          -0.000027801    0.000169422   -0.000121743
     17        1           0.000124804   -0.000145040    0.000169053
     18        1           0.000073605   -0.000146911    0.000160129
 -------------------------------------------------------------------
 Cartesian Forces:  Max     0.000522845 RMS     0.000177413

 GradGradGradGradGradGradGradGradGradGradGradGradGradGradGradGradGradGrad
 Berny optimization.
 Using GEDIIS/GDIIS optimizer.
 FormGI is forming the generalized inverse of G from B-inverse, IUseBI=4.
 Internal  Forces:  Max     0.000465064 RMS     0.000160365
 Search for a local minimum.
 Step number   3 out of a maximum of  101
 All quantities printed in internal units (Hartrees-Bohrs-Radians)
 Mixed Optimization -- En-DIIS/RFO-DIIS
 Swapping is turned off.
 Update second derivatives using D2CorX and points    1    2    3
 DE= -5.15D-07 DEPred=-2.16D-05 R= 2.38D-02
 Trust test= 2.38D-02 RLast= 1.02D-01 DXMaxT set to 1.50D-01
 ITU= -1  1  0
     Eigenvalues ---    0.00345   0.01291   0.01836   0.01852   0.01856
     Eigenvalues ---    0.01892   0.01929   0.01949   0.01976   0.02001
     Eigenvalues ---    0.02049   0.02050   0.02158   0.02407   0.02933
     Eigenvalues ---    0.04512   0.12992   0.16000   0.16000   0.16000
     Eigenvalues ---    0.16000   0.16000   0.16008   0.16180   0.21990
     Eigenvalues ---    0.22213   0.22647   0.24050   0.24444   0.24963
     Eigenvalues ---    0.33987   0.34184   0.34199   0.34320   0.35534
     Eigenvalues ---    0.36429   0.40985   0.41654   0.42267   0.44265
     Eigenvalues ---    0.44440   0.45053   0.45441   0.46694   0.48421
     Eigenvalues ---    0.49367   0.51660   0.58911
 En-DIIS/RFO-DIIS IScMMF=        0 using points:     3    2
 RFO step:  Lambda=-6.45112267D-06.
 DidBck=T Rises=F RFO-DIIS coefs:    0.50276    0.49724
 Iteration  1 RMS(Cart)=  0.01024913 RMS(Int)=  0.00018426
 Iteration  2 RMS(Cart)=  0.00017004 RMS(Int)=  0.00000140
 Iteration  3 RMS(Cart)=  0.00000002 RMS(Int)=  0.00000140
 Variable       Old X    -DE/DX   Delta X   Delta X   Delta X     New X
                                 (Linear)    (Quad)   (Total)
    R1        2.64091   0.00013  -0.00026   0.00049   0.00024   2.64115
    R2        2.49029   0.00019   0.00019   0.00000   0.00019   2.49048
    R3        3.68750   0.00017  -0.00219   0.00455   0.00236   3.68986
    R4        2.68232   0.00020   0.00044  -0.00026   0.00018   2.68250
    R5        2.65575   0.00011  -0.00014   0.00038   0.00024   2.65599
    R6        2.62912   0.00021  -0.00041   0.00084   0.00043   2.62955
    R7        2.64744   0.00029  -0.00019   0.00067   0.00047   2.64792
    R8        2.60342   0.00025   0.00028  -0.00004   0.00025   2.60367
    R9        1.91607   0.00025   0.00023   0.00006   0.00029   1.91636
   R10        2.04777   0.00041   0.00009   0.00065   0.00075   2.04852
   R11        2.63739   0.00031  -0.00018   0.00068   0.00050   2.63789
   R12        2.05677   0.00033   0.00047   0.00003   0.00049   2.05727
   R13        2.67418   0.00026  -0.00025   0.00074   0.00049   2.67467
   R14        2.05697   0.00036   0.00029   0.00030   0.00058   2.05755
   R15        2.64182   0.00025  -0.00019   0.00065   0.00045   2.64228
   R16        2.05714   0.00035   0.00029   0.00029   0.00058   2.05772
   R17        2.05683   0.00034   0.00034   0.00021   0.00054   2.05737
   R18        1.84459   0.00010   0.00028  -0.00024   0.00004   1.84463
   R19        1.87048   0.00009   0.00063  -0.00071  -0.00008   1.87040
    A1        1.83018  -0.00004  -0.00029   0.00034   0.00004   1.83023
    A2        1.86923   0.00047  -0.00130   0.00300   0.00170   1.87093
    A3        2.58350  -0.00043   0.00157  -0.00338  -0.00181   2.58169
    A4        1.92516   0.00005   0.00036  -0.00042  -0.00006   1.92510
    A5        2.25534   0.00001  -0.00026   0.00039   0.00013   2.25547
    A6        2.10268  -0.00006  -0.00010   0.00003  -0.00007   2.10262
    A7        1.82227   0.00000  -0.00028   0.00037   0.00009   1.82236
    A8        2.13686   0.00006  -0.00015   0.00028   0.00013   2.13699
    A9        2.32406  -0.00006   0.00042  -0.00065  -0.00022   2.32383
   A10        1.87107  -0.00005   0.00016  -0.00031  -0.00015   1.87092
   A11        2.21191   0.00000  -0.00017   0.00019   0.00002   2.21193
   A12        2.20020   0.00005   0.00000   0.00012   0.00012   2.20032
   A13        1.97610   0.00004   0.00004   0.00003   0.00007   1.97617
   A14        2.18598  -0.00004  -0.00010   0.00001  -0.00009   2.18589
   A15        2.12110   0.00001   0.00006  -0.00004   0.00002   2.12113
   A16        2.04769   0.00006   0.00011  -0.00003   0.00007   2.04776
   A17        2.08461   0.00002  -0.00122   0.00167   0.00045   2.08506
   A18        2.15088  -0.00008   0.00111  -0.00164  -0.00053   2.15036
   A19        2.12272   0.00000  -0.00005   0.00006   0.00001   2.12274
   A20        2.08504  -0.00001   0.00002  -0.00005  -0.00003   2.08501
   A21        2.07543   0.00001   0.00002  -0.00001   0.00002   2.07544
   A22        2.12589  -0.00006   0.00012  -0.00026  -0.00014   2.12575
   A23        2.08064   0.00001   0.00008  -0.00011  -0.00003   2.08061
   A24        2.07665   0.00005  -0.00020   0.00037   0.00017   2.07682
   A25        2.03053  -0.00001   0.00007  -0.00008  -0.00001   2.03052
   A26        2.13363   0.00000   0.00003  -0.00007  -0.00004   2.13359
   A27        2.11903   0.00001  -0.00010   0.00015   0.00005   2.11908
   A28        1.78579   0.00004  -0.00069   0.00106   0.00037   1.78615
   A29        2.76261   0.00014  -0.00027   0.00061   0.00034   2.76295
    D1        0.00136  -0.00019  -0.00221  -0.00149  -0.00370  -0.00234
    D2       -3.14137  -0.00018  -0.00269  -0.00085  -0.00355   3.13827
    D3       -3.12245  -0.00009  -0.00157  -0.00023  -0.00179  -3.12424
    D4        0.01801  -0.00009  -0.00206   0.00041  -0.00164   0.01637
    D5       -0.00107   0.00019   0.00217   0.00143   0.00360   0.00253
    D6       -3.14031   0.00009   0.00095   0.00085   0.00181  -3.13851
    D7        3.10842   0.00005   0.00092  -0.00065   0.00028   3.10870
    D8       -0.03082  -0.00005  -0.00029  -0.00123  -0.00152  -0.03234
    D9       -0.36499  -0.00029  -0.03559   0.00463  -0.03096  -0.39595
   D10        2.80906  -0.00014  -0.03434   0.00676  -0.02758   2.78148
   D11       -0.00113   0.00012   0.00144   0.00100   0.00245   0.00132
   D12        3.14082   0.00008   0.00115   0.00054   0.00169  -3.14067
   D13        3.14148   0.00011   0.00188   0.00043   0.00231  -3.13939
   D14        0.00025   0.00008   0.00159  -0.00003   0.00156   0.00180
   D15       -3.14024  -0.00008  -0.00087  -0.00081  -0.00168   3.14127
   D16       -0.00206  -0.00017  -0.00261  -0.00049  -0.00310  -0.00516
   D17        0.00012  -0.00008  -0.00140  -0.00011  -0.00151  -0.00139
   D18        3.13830  -0.00017  -0.00314   0.00021  -0.00293   3.13537
   D19        0.00047   0.00000  -0.00013  -0.00014  -0.00027   0.00020
   D20        3.13731  -0.00005  -0.00052  -0.00046  -0.00099   3.13632
   D21       -3.14154   0.00003   0.00020   0.00040   0.00060  -3.14094
   D22       -0.00470  -0.00001  -0.00019   0.00007  -0.00012  -0.00481
   D23       -0.00022  -0.00003  -0.00064   0.00013  -0.00051  -0.00073
   D24       -3.14114  -0.00001  -0.00021   0.00014  -0.00007  -3.14121
   D25       -3.14133  -0.00007  -0.00103  -0.00048  -0.00151   3.14034
   D26        0.00093  -0.00005  -0.00060  -0.00047  -0.00107  -0.00014
   D27        0.00039  -0.00012  -0.00133  -0.00084  -0.00217  -0.00178
   D28        3.13973  -0.00002  -0.00016  -0.00029  -0.00045   3.13928
   D29       -3.13650  -0.00008  -0.00094  -0.00052  -0.00146  -3.13795
   D30        0.00284   0.00002   0.00023   0.00004   0.00026   0.00311
   D31       -0.00051   0.00003   0.00038   0.00016   0.00054   0.00003
   D32        3.13994  -0.00001  -0.00024   0.00007  -0.00017   3.13976
[...]
 ! D26   D(4,3,9,15)            -0.0157         -DE/DX =    0.0                 !
 ! D27   D(3,4,5,1)             -0.0895         -DE/DX =    0.0                 !
 ! D28   D(3,4,5,11)           179.8927         -DE/DX =    0.0                 !
 ! D29   D(10,4,5,1)          -179.7754         -DE/DX =    0.0                 !
 ! D30   D(10,4,5,11)            0.2068         -DE/DX =    0.0                 !
 ! D31   D(2,6,7,8)              0.0093         -DE/DX =    0.0                 !
 ! D32   D(2,6,7,13)           179.8848         -DE/DX =    0.0                 !
 ! D33   D(12,6,7,8)          -179.6165         -DE/DX =    0.0                 !
 ! D34   D(12,6,7,13)            0.259          -DE/DX =    0.0                 !
 ! D35   D(6,7,8,9)              0.0798         -DE/DX =    0.0                 !
 ! D36   D(6,7,8,14)           179.9759         -DE/DX =    0.0                 !
 ! D37   D(13,7,8,9)          -179.7963         -DE/DX =    0.0                 !
 ! D38   D(13,7,8,14)            0.0997         -DE/DX =    0.0                 !
 ! D39   D(7,8,9,3)             -0.057          -DE/DX =    0.0                 !
 ! D40   D(7,8,9,15)           179.8796         -DE/DX =    0.0                 !
 ! D41   D(14,8,9,3)          -179.9533         -DE/DX =    0.0                 !
 ! D42   D(14,8,9,15)           -0.0167         -DE/DX =    0.0                 !
 ! D43   D(17,16,18,1)         -74.7571         -DE/DX =    0.0                 !
 --------------------------------------------------------------------------------
 GradGradGradGradGradGradGradGradGradGradGradGradGradGradGradGradGradGrad

                          Input orientation:                          
 ---------------------------------------------------------------------
 Center     Atomic      Atomic             Coordinates (Angstroms)
 Number     Number       Type             X           Y           Z
 ---------------------------------------------------------------------
      1          7           0       -0.326714   -0.247795    1.345090
      2          6           0       -0.448201    0.581632    0.227326
      3          6           0       -1.210031   -0.061441   -0.783246
      4          7           0       -1.540061   -1.296902   -0.234446
      5          6           0       -0.987546   -1.342919    1.027184
      6          6           0        0.061280    1.875190    0.021864
      7          6           0       -0.212002    2.484189   -1.204154
      8          6           0       -0.971175    1.830865   -2.204319
      9          6           0       -1.486998    0.544948   -2.015771
     10          1           0       -2.088484   -2.028466   -0.673415
     11          1           0       -1.105677   -2.210408    1.666718
     12          1           0        0.636864    2.355565    0.811510
     13          1           0        0.164277    3.487228   -1.399791
     14          1           0       -1.161199    2.342867   -3.146598
     15          1           0       -2.071903    0.049052   -2.788899
     16          8           0        1.310274    1.404316    3.069162
     17          1           0        2.185071    1.067650    2.796519
     18          1           0        0.695226    0.725427    2.694268
 ---------------------------------------------------------------------
                    Distance matrix (angstroms):
                    1          2          3          4          5
     1  N    0.000000
     2  C    1.397177   0.000000
     3  C    2.311879   1.419571   0.000000
     4  N    2.251171   2.221324   1.391569   0.000000
     5  C    1.317976   2.152804   2.229202   1.378079   0.000000
     6  C    2.531507   1.405375   2.452544   3.562605   3.530854
     7  C    3.738387   2.392624   2.766489   4.123194   4.497455
     8  C    4.163467   2.783340   2.378513   3.739914   4.529436
     9  C    3.642813   2.472231   1.401263   2.562878   3.615670
    10  H    3.216984   3.211616   2.157066   1.014223   2.138710
    11  H    2.135903   3.209301   3.260563   2.153511   1.084203
    12  H    2.826778   2.159972   3.434558   4.378761   4.045246
    13  H    4.661099   3.386020   3.855114   5.210634   5.526955
    14  H    5.251967   3.872167   3.371723   4.676760   5.570964
    15  H    4.497073   3.466649   2.185790   2.935928   4.204272
    16  O    2.895104   3.441668   4.831296   5.131746   4.122736
    17  H    3.185295   3.710941   5.061252   5.352986   4.359689
    18  H    1.952384   2.722849   4.042557   4.202819   3.144670
                    6          7          8          9         10
     6  C    0.000000
     7  C    1.395953   0.000000
     8  C    2.454347   1.415453   0.000000
     9  C    2.884209   2.458657   1.398287   0.000000
    10  H    4.510369   4.915987   4.299591   2.964147   0.000000
    11  H    4.556253   5.574927   5.597760   4.614989   2.544649
    12  H    1.088852   2.190895   3.457793   3.972738   5.371430
    13  H    2.151832   1.089012   2.163344   3.429746   6.002120
    14  H    3.428167   2.166573   1.089103   2.148820   5.107352
    15  H    3.973114   3.449716   2.174441   1.088923   2.965068
    16  O    3.326820   4.663119   5.761646   5.866838   6.110846
    17  H    3.586268   4.874210   5.962614   6.075808   6.315825
    18  H    2.977513   4.371956   5.291034   5.194145   5.164713
                   11         12         13         14         15
    11  H    0.000000
    12  H    4.961446   0.000000
    13  H    6.593886   2.528607   0.000000
    14  H    6.625965   4.347392   2.473416   0.000000
    15  H    5.088347   5.061657   4.330263   2.493776   0.000000
    16  O    4.568359   2.540737   5.061953   6.754608   6.898749
    17  H    4.780286   2.827707   5.248522   6.938612   7.096214
    18  H    3.594195   2.491090   4.966968   6.338623   6.178964
                   16         17         18
    16  O    0.000000
    17  H    0.976191   0.000000
    18  H    0.989808   1.532060   0.000000
 Stoichiometry    C7H8N2O
 Framework group  C1[X(C7H8N2O)]
 Deg. of freedom    48
 Full point group                 C1      NOp   1
 Largest Abelian subgroup         C1      NOp   1
 Largest concise Abelian subgroup C1      NOp   1
                         Standard orientation:                         
 ---------------------------------------------------------------------
 Center     Atomic      Atomic             Coordinates (Angstroms)
 Number     Number       Type             X           Y           Z
 ---------------------------------------------------------------------
      1          7           0        1.331946    0.807411   -0.039766
      2          6           0        0.198487   -0.009381   -0.024694
      3          6           0       -0.979232    0.782362    0.011392
      4          7           0       -0.514488    2.094025    0.015688
      5          6           0        0.862093    2.038576   -0.016715
      6          6           0        0.114514   -1.412135   -0.042212
      7          6           0       -1.161442   -1.977939   -0.020219
      8          6           0       -2.327791   -1.176890    0.017998
      9          6           0       -2.262401    0.219775    0.034007
     10          1           0       -1.078081    2.937044    0.033854
     11          1           0        1.465953    2.939032   -0.022070
     12          1           0        1.028556   -2.002782   -0.077750
     13          1           0       -1.267242   -3.061702   -0.034703
     14          1           0       -3.303851   -1.659802    0.033734
     15          1           0       -3.163931    0.829891    0.061480
     16          8           0        3.433490   -1.183843   -0.046463
     17          1           0        3.565987   -1.251026    0.918357
     18          1           0        2.897108   -0.356175   -0.129998
 ---------------------------------------------------------------------
 Rotational constants (GHZ):      1.8359789      1.1748207      0.7183914

 **********************************************************************

            Population analysis using the SCF density.

 **********************************************************************

 Orbital symmetries:
       Occupied  (A) (A) (A) (A) (A) (A) (A) (A) (A) (A) (A) (A)
                 (A) (A) (A) (A) (A) (A) (A) (A) (A) (A) (A) (A)
                 (A) (A) (A) (A) (A) (A) (A) (A) (A) (A) (A) (A)
       Virtual   (A) (A) (A) (A) (A) (A) (A) (A) (A) (A) (A) (A)
                 (A) (A) (A) (A) (A) (A) (A) (A) (A) (A) (A) (A)
                 (A) (A) (A) (A) (A) (A) (A) (A) (A) (A) (A) (A)
                 (A) (A) (A) (A) (A) (A) (A) (A) (A) (A) (A) (A)
                 (A) (A) (A) (A) (A) (A) (A) (A) (A) (A) (A) (A)
                 (A) (A) (A) (A) (A) (A) (A) (A) (A) (A) (A) (A)
                 (A) (A) (A) (A) (A) (A) (A) (A) (A) (A) (A) (A)
                 (A) (A) (A) (A) (A) (A) (A) (A) (A) (A) (A) (A)
                 (A) (A) (A) (A) (A) (A) (A) (A) (A) (A) (A) (A)
                 (A) (A) (A) (A) (A) (A) (A) (A) (A) (A) (A) (A)
                 (A) (A) (A) (A) (A) (A) (A) (A) (A) (A)
 The electronic state is 1-A.
 Alpha  occ. eigenvalues --  -18.85637 -14.18817 -14.11772 -10.07483 -10.04226
 Alpha  occ. eigenvalues --  -10.02360 -10.01237 -10.00510  -9.99909  -9.99758
 Alpha  occ. eigenvalues --   -0.95462  -0.88602  -0.82427  -0.78081  -0.68728
 Alpha  occ. eigenvalues --   -0.68184  -0.58478  -0.58017  -0.54910  -0.50269
 Alpha  occ. eigenvalues --   -0.45899  -0.44169  -0.42572  -0.40353  -0.39915
 Alpha  occ. eigenvalues --   -0.39159  -0.37495  -0.32613  -0.31928  -0.30603
 Alpha  occ. eigenvalues --   -0.29172  -0.27786  -0.24355  -0.20792  -0.20326
 Alpha  occ. eigenvalues --   -0.20157
 Alpha virt. eigenvalues --   -0.04398  -0.00683   0.01478   0.04904   0.08178
 Alpha virt. eigenvalues --    0.09571   0.10977   0.13269   0.13788   0.15457
 Alpha virt. eigenvalues --    0.18264   0.19149   0.20652   0.21363   0.23976
 Alpha virt. eigenvalues --    0.28505   0.30381   0.30499   0.33443   0.37353
 Alpha virt. eigenvalues --    0.46377   0.48361   0.49587   0.50368   0.51879
 Alpha virt. eigenvalues --    0.52512   0.55595   0.55920   0.56958   0.57330
 Alpha virt. eigenvalues --    0.59232   0.59779   0.59920   0.62107   0.64373
 Alpha virt. eigenvalues --    0.65005   0.66314   0.72324   0.74997   0.76808
 Alpha virt. eigenvalues --    0.78112   0.78370   0.80424   0.80829   0.82515
 Alpha virt. eigenvalues --    0.82710   0.85374   0.85585   0.87869   0.89360
 Alpha virt. eigenvalues --    0.92707   0.93177   0.95432   0.96256   1.00067
 Alpha virt. eigenvalues --    1.05390   1.07939   1.09011   1.10804   1.14050
 Alpha virt. eigenvalues --    1.17870   1.19270   1.23506   1.27631   1.28660
 Alpha virt. eigenvalues --    1.30602   1.33358   1.37508   1.38646   1.40838
 Alpha virt. eigenvalues --    1.42718   1.43679   1.45563   1.46274   1.50348
 Alpha virt. eigenvalues --    1.51256   1.59660   1.71209   1.73621   1.74818
 Alpha virt. eigenvalues --    1.76338   1.78600   1.79566   1.81507   1.84892
 Alpha virt. eigenvalues --    1.89988   1.90462   1.93878   1.97305   1.98745
 Alpha virt. eigenvalues --    2.01855   2.03124   2.09699   2.11300   2.13209
 Alpha virt. eigenvalues --    2.18986   2.20646   2.21149   2.22325   2.22611
 Alpha virt. eigenvalues --    2.34055   2.35678   2.39779   2.41959   2.48975
 Alpha virt. eigenvalues --    2.53458   2.55047   2.56762   2.61531   2.62440
 Alpha virt. eigenvalues --    2.64060   2.67088   2.70962   2.75332   2.79332
 Alpha virt. eigenvalues --    2.83923   2.97142   3.03417   3.16328   3.40547
 Alpha virt. eigenvalues --    3.69749   3.97685   4.03792   4.05771   4.10925
 Alpha virt. eigenvalues --    4.18473   4.22883   4.36868   4.39913   4.72429
          Condensed to atoms (all electrons):
               1          2          3          4          5          6
     1  N    6.930303   0.315743  -0.060315  -0.072252   0.485694  -0.068619
     2  C    0.315743   4.709864   0.488216  -0.044920  -0.089918   0.511047
     3  C   -0.060315   0.488216   4.747201   0.237460  -0.092757  -0.054564
     4  N   -0.072252  -0.044920   0.237460   7.079544   0.315352   0.010161
     5  C    0.485694  -0.089918  -0.092757   0.315352   4.776288   0.009192
     6  C   -0.068619   0.511047  -0.054564   0.010161   0.009192   5.085255
     7  C    0.004849  -0.024193  -0.038532  -0.000060  -0.000008   0.498377
     8  C   -0.000176  -0.036575  -0.005546   0.005260   0.000009  -0.030030
     9  C    0.010456  -0.042254   0.485270  -0.084334   0.005926  -0.046020
    10  H    0.003995   0.006828  -0.024438   0.304840  -0.023480  -0.000138
    11  H   -0.038792   0.005369   0.003786  -0.056262   0.379648  -0.000188
    12  H   -0.002067  -0.041309   0.006116  -0.000139   0.000239   0.319358
    13  H   -0.000095   0.002542   0.000847   0.000003   0.000004  -0.036401
    14  H    0.000002   0.000883   0.002421  -0.000112   0.000003   0.003869
    15  H   -0.000131   0.003552  -0.039770  -0.005356  -0.000209   0.000247
    16  O   -0.017836  -0.003234   0.000003  -0.000009   0.000477  -0.004400
    17  H    0.002258  -0.000021  -0.000002   0.000001   0.000015   0.000689
    18  H    0.059540  -0.002407   0.000523   0.000271  -0.002272  -0.000954
               7          8          9         10         11         12
     1  N    0.004849  -0.000176   0.010456   0.003995  -0.038792  -0.002067
     2  C   -0.024193  -0.036575  -0.042254   0.006828   0.005369  -0.041309
     3  C   -0.038532  -0.005546   0.485270  -0.024438   0.003786   0.006116
     4  N   -0.000060   0.005260  -0.084334   0.304840  -0.056262  -0.000139
     5  C   -0.000008   0.000009   0.005926  -0.023480   0.379648   0.000239
     6  C    0.498377  -0.030030  -0.046020  -0.000138  -0.000188   0.319358
     7  C    4.942010   0.521482  -0.035649   0.000005   0.000005  -0.031203
     8  C    0.521482   4.903879   0.520925  -0.000061   0.000003   0.004145
     9  C   -0.035649   0.520925   5.054581  -0.001128  -0.000079   0.000093
    10  H    0.000005  -0.000061  -0.001128   0.388606   0.000672   0.000003
    11  H    0.000005   0.000003  -0.000079   0.000672   0.521072  -0.000001
    12  H   -0.031203   0.004145   0.000093   0.000003  -0.000001   0.536509
    13  H    0.360271  -0.040286   0.004293   0.000000   0.000000  -0.004225
    14  H   -0.038032   0.359730  -0.038992  -0.000002   0.000000  -0.000123
    15  H    0.004080  -0.038742   0.352331   0.001796  -0.000001   0.000013
    16  O    0.000332   0.000001  -0.000001   0.000000   0.000023   0.030048
    17  H   -0.000013   0.000000   0.000000   0.000000   0.000000  -0.001097
    18  H   -0.000066  -0.000004  -0.000008  -0.000004  -0.000143  -0.003206
              13         14         15         16         17         18
     1  N   -0.000095   0.000002  -0.000131  -0.017836   0.002258   0.059540
     2  C    0.002542   0.000883   0.003552  -0.003234  -0.000021  -0.002407
     3  C    0.000847   0.002421  -0.039770   0.000003  -0.000002   0.000523
     4  N    0.000003  -0.000112  -0.005356  -0.000009   0.000001   0.000271
     5  C    0.000004   0.000003  -0.000209   0.000477   0.000015  -0.002272
     6  C   -0.036401   0.003869   0.000247  -0.004400   0.000689  -0.000954
     7  C    0.360271  -0.038032   0.004080   0.000332  -0.000013  -0.000066
     8  C   -0.040286   0.359730  -0.038742   0.000001   0.000000  -0.000004
     9  C    0.004293  -0.038992   0.352331  -0.000001   0.000000  -0.000008
    10  H    0.000000  -0.000002   0.001796   0.000000   0.000000  -0.000004
    11  H    0.000000   0.000000  -0.000001   0.000023   0.000000  -0.000143
    12  H   -0.004225  -0.000123   0.000013   0.030048  -0.001097  -0.003206
    13  H    0.568467  -0.004624  -0.000164  -0.000004   0.000001   0.000001
    14  H   -0.004624   0.571766  -0.004381   0.000000   0.000000   0.000000
    15  H   -0.000164  -0.004381   0.579048   0.000000   0.000000   0.000000
    16  O   -0.000004   0.000000   0.000000   8.355958   0.232284   0.213604
    17  H    0.000001   0.000000   0.000000   0.232284   0.423774  -0.022786
    18  H    0.000001   0.000000   0.000000   0.213604  -0.022786   0.343142
 Mulliken charges:
               1
     1  N   -0.552557
     2  C    0.240786
     3  C    0.344081
     4  N   -0.689448
     5  C    0.235797
     6  C   -0.196883
     7  C   -0.163655
     8  C   -0.164015
     9  C   -0.185409
    10  H    0.342506
    11  H    0.184885
    12  H    0.186845
    13  H    0.149371
    14  H    0.147591
    15  H    0.147686
    16  O   -0.807248
    17  H    0.364897
    18  H    0.414770
 Sum of Mulliken charges =   0.00000
 Mulliken charges with hydrogens summed into heavy atoms:
               1
     1  N   -0.552557
     2  C    0.240786
     3  C    0.344081
     4  N   -0.346942
     5  C    0.420681
     6  C   -0.010038
     7  C   -0.014284
     8  C   -0.016424
     9  C   -0.037722
    16  O   -0.027581
 Electronic spatial extent (au):  <R**2>=           1531.6016
 Charge=              0.0000 electrons
 Dipole moment (field-independent basis, Debye):
    X=             -3.7428    Y=              4.0391    Z=              1.4621  Tot=              5.6974
 Quadrupole moment (field-independent basis, Debye-Ang):
   XX=            -62.4963   YY=            -44.0780   ZZ=            -59.7239
   XY=              2.6384   XZ=              5.3624   YZ=             -1.9150
 Traceless Quadrupole moment (field-independent basis, Debye-Ang):
   XX=             -7.0636   YY=             11.3547   ZZ=             -4.2911
   XY=              2.6384   XZ=              5.3624   YZ=             -1.9150
 Octapole moment (field-independent basis, Debye-Ang**2):
  XXX=            -35.8800  YYY=             37.0074  ZZZ=              1.9517  XYY=             -8.5207
  XXY=             20.2438  XXZ=             21.2063  XZZ=             14.2393  YZZ=             -0.2722
  YYZ=              3.0419  XYZ=             -7.9624
 Hexadecapole moment (field-independent basis, Debye-Ang**3):
 XXXX=          -1210.6305 YYYY=           -611.9549 ZZZZ=            -59.9576 XXXY=             38.5453
 XXXZ=             76.9486 YYYX=            -10.2011 YYYZ=             -3.2051 ZZZX=              7.4382
 ZZZY=             -2.7027 XXYY=           -298.6550 XXZZ=           -189.2557 YYZZ=           -146.0193
 XXYZ=            -28.4737 YYXZ=             10.4712 ZZXY=            -15.9362
 N-N= 4.900001204711D+02 E-N=-2.042458616903D+03  KE= 4.524989228938D+02
 1\1\GINC-NID03438\FOpt\RTPSSTPSS\6-31G(d)\C7H8N2O1\PARKSJM\28-Oct-2015
 \0\\# tpsstpss/6-31G(d) opt integral=ultrafine scf=tight\\Bzm.H2O\\0,1
 \N,-0.3267140374,-0.2477946175,1.3450896469\C,-0.4482010874,0.58163171
 17,0.2273255452\C,-1.2100305416,-0.0614411084,-0.7832455622\N,-1.54006
 12296,-1.2969021785,-0.2344461261\C,-0.9875459062,-1.3429193434,1.0271
 842399\C,0.0612802112,1.8751895117,0.0218637069\C,-0.2120016025,2.4841
 89263,-1.2041542388\C,-0.9711753575,1.8308649953,-2.2043193238\C,-1.48
 69981538,0.5449477715,-2.0157710218\H,-2.0884842396,-2.028466315,-0.67
 34152407\H,-1.1056771481,-2.2104082274,1.6667182672\H,0.6368641964,2.3
 555652149,0.8115102802\H,0.1642772674,3.4872284985,-1.399790961\H,-1.1
 611994669,2.342867105,-3.146598149\H,-2.0719030836,0.0490520511,-2.788
 8986326\O,1.3102737351,1.4043162362,3.0691620339\H,2.1850706051,1.0676
 500195,2.7965185964\H,0.6952258389,0.7254274117,2.6942679394\\Version=
 AS64L-G09RevD.01\State=1-A\HF=-456.3622272\RMSD=2.607e-09\RMSF=1.847e-
 05\Dipole=-0.7543168,-1.563565,-1.4179808\Quadrupole=1.2702482,5.97640
 37,-7.2466519,3.5580553,0.1607157,-4.3212712\PG=C01 [X(C7H8N2O1)]\\@


 TERRY FORSTER, PORTLY ATLANTA BRAVES RELIEVER,
 ANNOUNCING THAT HE WAS GOING TO A FAT FARM:
 "A WAIST IS A TERRIBLE THING TO MIND."
 Job cpu time:       0 days  0 hours  1 minutes 48.0 seconds.
 File lengths (MBytes):  RWF=     15 Int=      0 D2E=      0 Chk=      3 Scr=      1
 Normal termination of Gaussian 09 at Wed Oct 28 19:31:00 2015.
