 Entering GApplication 60298299 resources: utime ~3978s, stime ~105s, Rss ~2031604, inblocks ~1213636, outblocks ~372140
obal/homes/p/parksjm/tpss/Bzm.H2O/Bzm.H2O.tpss.631gs.freq.log
 Initial command:
 /usr/common/usg/g09/d1/g09/l1.exe "/scratch/scratchdirs/parksjm/g09/13504651.hopque01/Gau-31679.inp" -scrdir="/scratch/scratchdirs/parksjm/g09/13504651.hopque01/"
 Entering Link 1 = /usr/common/usg/g09/d1/g09/l1.exe PID=     31680.
  
 Copyright (c) 1988,1990,1992,1993,1995,1998,2003,2009,2013,
            Gaussian, Inc.  All Rights Reserved.
  
 This is part of the Gaussian(R) 09 program.  It is based on
 the Gaussian(R) 03 system (copyright 2003, Gaussian, Inc.),
 the Gaussian(R) 98 system (copyright 1998, Gaussian, Inc.),
 the Gaussian(R) 94 system (copyright 1995, Gaussian, Inc.),
 the Gaussian 92(TM) system (copyright 1992, Gaussian, Inc.),
 the Gaussian 90(TM) system (copyright 1990, Gaussian, Inc.),
 the Gaussian 88(TM) system (copyright 1988, Gaussian, Inc.),
 the Gaussian 86(TM) system (copyright 1986, Carnegie Mellon
 University), and the Gaussian 82(TM) system (copyright 1983,
 Carnegie Mellon University). Gaussian is a federally registered
 trademark of Gaussian, Inc.
  
 This software contains proprietary and confidential information,
 including trade secrets, belonging to Gaussian, Inc.
  
 This software is provided under written license and may be
 used, copied, transmitted, or stored only in accord with that
 written license.
  
 The following legend is applicable only to US Government
 contracts under FAR:
  
                    RESTRICTED RIGHTS LEGEND
  
 Use, reproduction and disclosure by the US Government is
 subject to restrictions as set forth in subparagraphs (a)
 and (c) of the Commercial Computer Software - Restricted
 Rights clause in FAR 52.227-19.
  
 Gaussian, Inc.
 340 Quinnipiac St., Bldg. 40, Wallingford CT 06492
  
  
 ---------------------------------------------------------------
 Warning -- This program may not be used in any manner that
 competes with the business of Gaussian, Inc. or will provide
 assistance to any competitor of Gaussian, Inc.  The licensee
 of this program is prohibited from giving any competitor of
 Gaussian, Inc. access to this program.  By using this program,
 the user acknowledges that Gaussian, Inc. is engaged in the
 business of creating and licensing software in the field of
 computational chemistry and represents and warrants to the
 licensee that it is not a competitor of Gaussian, Inc. and that
 it will not use this program in any manner prohibited above.
 ---------------------------------------------------------------
  

 Cite this work as:
 Gaussian 09, Revision D.01,
 M. J. Frisch, G. W. Trucks, H. B. Schlegel, G. E. Scuseria, 
 M. A. Robb, J. R. Cheeseman, G. Scalmani, V. Barone, B. Mennucci, 
 G. A. Petersson, H. Nakatsuji, M. Caricato, X. Li, H. P. Hratchian, 
 A. F. Izmaylov, J. Bloino, G. Zheng, J. L. Sonnenberg, M. Hada, 
 M. Ehara, K. Toyota, R. Fukuda, J. Hasegawa, M. Ishida, T. Nakajima, 
 Y. Honda, O. Kitao, H. Nakai, T. Vreven, J. A. Montgomery, Jr., 
 J. E. Peralta, F. Ogliaro, M. Bearpark, J. J. Heyd, E. Brothers, 
 K. N. Kudin, V. N. Staroverov, T. Keith, R. Kobayashi, J. Normand, 
 K. Raghavachari, A. Rendell, J. C. Burant, S. S. Iyengar, J. Tomasi, 
 M. Cossi, N. Rega, J. M. Millam, M. Klene, J. E. Knox, J. B. Cross, 
 V. Bakken, C. Adamo, J. Jaramillo, R. Gomperts, R. E. Stratmann, 
 O. Yazyev, A. J. Austin, R. Cammi, C. Pomelli, J. W. Ochterski, 
 R. L. Martin, K. Morokuma, V. G. Zakrzewski, G. A. Voth, 
 P. Salvador, J. J. Dannenberg, S. Dapprich, A. D. Daniels, 
 O. Farkas, J. B. Foresman, J. V. Ortiz, J. Cioslowski, 
 and D. J. Fox, Gaussian, Inc., Wallingford CT, 2013.
 
 ******************************************
 Gaussian 09:  AS64L-G09RevD.01 24-Apr-2013
                29-Oct-2015 
 ******************************************
 %nproc=24
 Will use up to   24 processors via shared memory.
 %chk=Bzm.H2O.chk
 %mem=7000mb
 -----------------------------------------------------
 # tpsstpss/6-31G(d) freq integral=ultrafine scf=tight
 -----------------------------------------------------
 1/10=4,30=1,38=1/1,3;
 2/12=2,17=6,18=5,40=1/2;
 3/5=1,6=6,7=1,11=2,16=1,25=1,30=1,71=2,74=2523,75=-5,140=1/1,2,3;
 4//1;
 5/5=2,32=2,38=5,98=1/2;
 8/6=4,10=90,11=11/1;
 11/6=1,8=1,9=11,15=111,16=1/1,2,10;
 10/6=1/2;
 6/7=2,8=2,9=2,10=2,18=1,28=1/1;
 7/8=1,10=1,25=1/1,2,3,16;
 1/10=4,30=1/3;
 99//99;
 -------
 Bzm.H2O
 -------
 Symbolic Z-matrix:
 Charge =  0 Multiplicity = 1
 N                     1.33195   0.80741  -0.03977 
 C                     0.19849  -0.00938  -0.02469 
 C                    -0.97923   0.78236   0.01139 
 N                    -0.51449   2.09403   0.01569 
 C                     0.86209   2.03858  -0.01672 
 C                     0.11451  -1.41214  -0.04221 
 C                    -1.16144  -1.97794  -0.02022 
 C                    -2.32779  -1.17689   0.018 
 C                    -2.2624    0.21978   0.03401 
 H                    -1.07808   2.93704   0.03385 
 H                     1.46595   2.93903  -0.02207 
 H                     1.02856  -2.00278  -0.07775 
 H                    -1.26724  -3.0617   -0.0347 
 H                    -3.30385  -1.6598    0.03373 
 H                    -3.16393   0.82989   0.06148 
 O                     3.43349  -1.18384  -0.04646 
 H                     3.56599  -1.25103   0.91836 
 H                     2.89711  -0.35618  -0.13 
 

 GradGradGradGradGradGradGradGradGradGradGradGradGradGradGradGradGradGrad
 Berny optimization.
 Initialization pass.
 Trust Radius=3.00D-01 FncErr=1.00D-07 GrdErr=1.00D-07
 Number of steps in this run=      2 maximum allowed number of steps=      2.
 GradGradGradGradGradGradGradGradGradGradGradGradGradGradGradGradGradGrad

                          Input orientation:                          
 ---------------------------------------------------------------------
 Center     Atomic      Atomic             Coordinates (Angstroms)
 Number     Number       Type             X           Y           Z
 ---------------------------------------------------------------------
      1          7           0        1.331946    0.807411   -0.039766
      2          6           0        0.198487   -0.009381   -0.024694
      3          6           0       -0.979232    0.782362    0.011392
      4          7           0       -0.514488    2.094025    0.015688
      5          6           0        0.862093    2.038576   -0.016715
      6          6           0        0.114514   -1.412135   -0.042212
      7          6           0       -1.161442   -1.977939   -0.020219
      8          6           0       -2.327791   -1.176890    0.017998
      9          6           0       -2.262401    0.219775    0.034007
     10          1           0       -1.078081    2.937044    0.033854
     11          1           0        1.465953    2.939032   -0.022070
     12          1           0        1.028556   -2.002782   -0.077750
     13          1           0       -1.267242   -3.061702   -0.034703
     14          1           0       -3.303851   -1.659802    0.033734
     15          1           0       -3.163931    0.829891    0.061480
     16          8           0        3.433490   -1.183843   -0.046463
     17          1           0        3.565987   -1.251026    0.918357
     18          1           0        2.897108   -0.356175   -0.129998
 ---------------------------------------------------------------------
                    Distance matrix (angstroms):
                    1          2          3          4          5
     1  N    0.000000
     2  C    1.397178   0.000000
     3  C    2.311880   1.419571   0.000000
     4  N    2.251171   2.221324   1.391569   0.000000
     5  C    1.317976   2.152804   2.229202   1.378078   0.000000
     6  C    2.531508   1.405374   2.452544   3.562605   3.530854
     7  C    3.738387   2.392624   2.766489   4.123194   4.497455
     8  C    4.163468   2.783340   2.378513   3.739914   4.529436
     9  C    3.642813   2.472231   1.401263   2.562879   3.615670
    10  H    3.216984   3.211615   2.157065   1.014223   2.138709
    11  H    2.135902   3.209302   3.260564   2.153511   1.084203
    12  H    2.826778   2.159972   3.434558   4.378760   4.045245
    13  H    4.661099   3.386019   3.855114   5.210633   5.526955
    14  H    5.251967   3.872167   3.371723   4.676760   5.570964
    15  H    4.497073   3.466649   2.185790   2.935929   4.204272
    16  O    2.895104   3.441668   4.831296   5.131745   4.122736
    17  H    3.185295   3.710941   5.061252   5.352985   4.359688
    18  H    1.952385   2.722850   4.042557   4.202819   3.144670
                    6          7          8          9         10
     6  C    0.000000
     7  C    1.395952   0.000000
     8  C    2.454347   1.415454   0.000000
     9  C    2.884210   2.458658   1.398287   0.000000
    10  H    4.510369   4.915987   4.299591   2.964147   0.000000
    11  H    4.556254   5.574927   5.597760   4.614989   2.544649
    12  H    1.088852   2.190894   3.457793   3.972738   5.371430
    13  H    2.151831   1.089011   2.163344   3.429745   6.002119
    14  H    3.428167   2.166573   1.089103   2.148820   5.107352
    15  H    3.973114   3.449717   2.174440   1.088923   2.965068
    16  O    3.326821   4.663119   5.761646   5.866838   6.110846
    17  H    3.586268   4.874209   5.962614   6.075808   6.315825
    18  H    2.977514   4.371956   5.291034   5.194146   5.164714
                   11         12         13         14         15
    11  H    0.000000
    12  H    4.961446   0.000000
    13  H    6.593885   2.528607   0.000000
    14  H    6.625965   4.347392   2.473415   0.000000
    15  H    5.088348   5.061657   4.330263   2.493776   0.000000
    16  O    4.568358   2.540738   5.061954   6.754608   6.898749
    17  H    4.780286   2.827706   5.248521   6.938612   7.096214
    18  H    3.594196   2.491090   4.966968   6.338623   6.178965
                   16         17         18
    16  O    0.000000
    17  H    0.976190   0.000000
    18  H    0.989807   1.532059   0.000000
 Stoichiometry    C7H8N2O
 Framework group  C1[X(C7H8N2O)]
 Deg. of freedom    48
 Full point group                 C1      NOp   1
 Largest Abelian subgroup         C1      NOp   1
 Largest concise Abelian subgroup C1      NOp   1
                         Standard orientation:                         
 ---------------------------------------------------------------------
 Center     Atomic      Atomic             Coordinates (Angstroms)
 Number     Number       Type             X           Y           Z
 ---------------------------------------------------------------------
      1          7           0        1.331946    0.807411   -0.039766
      2          6           0        0.198487   -0.009381   -0.024694
      3          6           0       -0.979232    0.782362    0.011392
      4          7           0       -0.514488    2.094025    0.015688
      5          6           0        0.862093    2.038576   -0.016715
      6          6           0        0.114514   -1.412135   -0.042212
      7          6           0       -1.161442   -1.977939   -0.020219
      8          6           0       -2.327791   -1.176890    0.017998
      9          6           0       -2.262401    0.219775    0.034007
     10          1           0       -1.078081    2.937044    0.033854
     11          1           0        1.465953    2.939032   -0.022070
     12          1           0        1.028556   -2.002782   -0.077750
     13          1           0       -1.267242   -3.061702   -0.034703
     14          1           0       -3.303851   -1.659802    0.033734
     15          1           0       -3.163931    0.829891    0.061480
     16          8           0        3.433490   -1.183843   -0.046463
     17          1           0        3.565987   -1.251026    0.918357
     18          1           0        2.897108   -0.356175   -0.129998
 ---------------------------------------------------------------------
 Rotational constants (GHZ):      1.8359790      1.1748206      0.7183914
 Standard basis: 6-31G(d) (6D, 7F)
 There are   166 symmetry adapted cartesian basis functions of A   symmetry.
 There are   166 symmetry adapted basis functions of A   symmetry.
   166 basis functions,   312 primitive gaussians,   166 cartesian basis functions
    36 alpha electrons       36 beta electrons
       nuclear repulsion energy       490.0001274207 Hartrees.
 NAtoms=   18 NActive=   18 NUniq=   18 SFac= 1.00D+00 NAtFMM=   60 NAOKFM=F Big=F
 Integral buffers will be    131072 words long.
 Raffenetti 2 integral format.
 Two-electron integral symmetry is turned on.
 One-electron integrals computed using PRISM.
 NBasis=   166 RedAO= T EigKep=  4.07D-04  NBF=   166
 NBsUse=   166 1.00D-06 EigRej= -1.00D+00 NBFU=   166
 ExpMin= 1.61D-01 ExpMax= 5.48D+03 ExpMxC= 8.25D+02 IAcc=3 IRadAn=         5 AccDes= 0.00D+00
 Harris functional with IExCor= 1009 and IRadAn=       5 diagonalized for initial guess.
 HarFok:  IExCor= 1009 AccDes= 0.00D+00 IRadAn=         5 IDoV= 1 UseB2=F ITyADJ=14
 ICtDFT=  3500011 ScaDFX=  1.000000  1.000000  1.000000  1.000000
 FoFCou: FMM=F IPFlag=           0 FMFlag=      100000 FMFlg1=           0
         NFxFlg=           0 DoJE=T BraDBF=F KetDBF=T FulRan=T
         wScrn=  0.000000 ICntrl=     500 IOpCl=  0 I1Cent=   200000004 NGrid=           0
         NMat0=    1 NMatS0=      1 NMatT0=    0 NMatD0=    1 NMtDS0=    0 NMtDT0=    0
 Petite list used in FoFCou.
 Keep J ints in memory in canonical form, NReq=98505695.
 Requested convergence on RMS density matrix=1.00D-08 within 128 cycles.
 Requested convergence on MAX density matrix=1.00D-06.
 Requested convergence on             energy=1.00D-06.
 No special actions if energy rises.
 Integral accuracy reduced to 1.0D-05 until final iterations.
 Initial convergence to 1.0D-05 achieved.  Increase integral accuracy.
 SCF Done:  E(RTPSS-TPSS) =  -456.362227190     A.U. after   16 cycles
            NFock= 16  Conv=0.26D-08     -V/T= 2.0085
 Range of M.O.s used for correlation:     1   166
 NBasis=   166 NAE=    36 NBE=    36 NFC=     0 NFV=     0
 NROrb=    166 NOA=    36 NOB=    36 NVA=   130 NVB=   130
 Symmetrizing basis deriv contribution to polar:
 IMax=3 JMax=2 DiffMx= 0.00D+00
 G2DrvN: will do    19 centers at a time, making    1 passes.
 Calling FoFCou, ICntrl=  3507 FMM=F I1Cent=   0 AccDes= 0.00D+00.
 End of G2Drv F.D. properties file   721 does not exist.
 End of G2Drv F.D. properties file   722 does not exist.
 End of G2Drv F.D. properties file   788 does not exist.
          IDoAtm=111111111111111111
          Differentiating once with respect to electric field.
                with respect to dipole field.
          Differentiating once with respect to nuclear coordinates.
 Keep J ints in memory in canonical form, NReq=98406453.
          There are    57 degrees of freedom in the 1st order CPHF.  IDoFFX=6 NUNeed=     3.
     54 vectors produced by pass  0 Test12= 8.21D-15 1.75D-09 XBig12= 2.39D+02 9.74D+00.
 AX will form    54 AO Fock derivatives at one time.
     54 vectors produced by pass  1 Test12= 8.21D-15 1.75D-09 XBig12= 5.81D+01 1.58D+00.
     54 vectors produced by pass  2 Test12= 8.21D-15 1.75D-09 XBig12= 3.99D-01 8.48D-02.
     54 vectors produced by pass  3 Test12= 8.21D-15 1.75D-09 XBig12= 4.20D-04 2.77D-03.
     53 vectors produced by pass  4 Test12= 8.21D-15 1.75D-09 XBig12= 7.84D-08 2.78D-05.
     17 vectors produced by pass  5 Test12= 8.21D-15 1.75D-09 XBig12= 2.80D-11 5.78D-07.
      2 vectors produced by pass  6 Test12= 8.21D-15 1.75D-09 XBig12= 7.81D-15 7.79D-09.
 InvSVY:  IOpt=1 It=  1 EMax= 1.95D-14
 Solved reduced A of dimension   288 with    57 vectors.
 Isotropic polarizability for W=    0.000000       86.89 Bohr**3.
 End of Minotr F.D. properties file   721 does not exist.
 End of Minotr F.D. properties file   722 does not exist.
 End of Minotr F.D. properties file   788 does not exist.

 **********************************************************************

            Population analysis using the SCF density.

 **********************************************************************

 Orbital symmetries:
       Occupied  (A) (A) (A) (A) (A) (A) (A) (A) (A) (A) (A) (A)
                 (A) (A) (A) (A) (A) (A) (A) (A) (A) (A) (A) (A)
                 (A) (A) (A) (A) (A) (A) (A) (A) (A) (A) (A) (A)
       Virtual   (A) (A) (A) (A) (A) (A) (A) (A) (A) (A) (A) (A)
                 (A) (A) (A) (A) (A) (A) (A) (A) (A) (A) (A) (A)
                 (A) (A) (A) (A) (A) (A) (A) (A) (A) (A) (A) (A)
                 (A) (A) (A) (A) (A) (A) (A) (A) (A) (A) (A) (A)
                 (A) (A) (A) (A) (A) (A) (A) (A) (A) (A) (A) (A)
                 (A) (A) (A) (A) (A) (A) (A) (A) (A) (A) (A) (A)
                 (A) (A) (A) (A) (A) (A) (A) (A) (A) (A) (A) (A)
                 (A) (A) (A) (A) (A) (A) (A) (A) (A) (A) (A) (A)
                 (A) (A) (A) (A) (A) (A) (A) (A) (A) (A) (A) (A)
                 (A) (A) (A) (A) (A) (A) (A) (A) (A) (A) (A) (A)
                 (A) (A) (A) (A) (A) (A) (A) (A) (A) (A)
 The electronic state is 1-A.
 Alpha  occ. eigenvalues --  -18.85637 -14.18817 -14.11772 -10.07483 -10.04226
 Alpha  occ. eigenvalues --  -10.02360 -10.01237 -10.00510  -9.99909  -9.99758
 Alpha  occ. eigenvalues --   -0.95462  -0.88602  -0.82427  -0.78081  -0.68728
 Alpha  occ. eigenvalues --   -0.68184  -0.58478  -0.58017  -0.54910  -0.50269
 Alpha  occ. eigenvalues --   -0.45899  -0.44169  -0.42572  -0.40353  -0.39915
 Alpha  occ. eigenvalues --   -0.39159  -0.37495  -0.32613  -0.31928  -0.30603
 Alpha  occ. eigenvalues --   -0.29172  -0.27786  -0.24355  -0.20792  -0.20326
 Alpha  occ. eigenvalues --   -0.20157
 Alpha virt. eigenvalues --   -0.04398  -0.00683   0.01478   0.04904   0.08178
 Alpha virt. eigenvalues --    0.09571   0.10977   0.13269   0.13788   0.15457
 Alpha virt. eigenvalues --    0.18264   0.19149   0.20652   0.21363   0.23976
 Alpha virt. eigenvalues --    0.28505   0.30381   0.30499   0.33443   0.37353
 Alpha virt. eigenvalues --    0.46377   0.48361   0.49587   0.50368   0.51879
 Alpha virt. eigenvalues --    0.52512   0.55595   0.55920   0.56958   0.57330
 Alpha virt. eigenvalues --    0.59232   0.59779   0.59920   0.62107   0.64373
 Alpha virt. eigenvalues --    0.65005   0.66314   0.72324   0.74997   0.76808
 Alpha virt. eigenvalues --    0.78112   0.78370   0.80424   0.80829   0.82515
 Alpha virt. eigenvalues --    0.82710   0.85374   0.85585   0.87869   0.89360
 Alpha virt. eigenvalues --    0.92707   0.93177   0.95432   0.96256   1.00067
 Alpha virt. eigenvalues --    1.05390   1.07939   1.09011   1.10804   1.14050
 Alpha virt. eigenvalues --    1.17870   1.19270   1.23506   1.27631   1.28660
 Alpha virt. eigenvalues --    1.30602   1.33358   1.37508   1.38646   1.40838
 Alpha virt. eigenvalues --    1.42718   1.43679   1.45563   1.46274   1.50348
 Alpha virt. eigenvalues --    1.51256   1.59660   1.71209   1.73621   1.74818
 Alpha virt. eigenvalues --    1.76338   1.78600   1.79566   1.81507   1.84892
 Alpha virt. eigenvalues --    1.89988   1.90462   1.93878   1.97305   1.98745
 Alpha virt. eigenvalues --    2.01855   2.03124   2.09699   2.11300   2.13209
 Alpha virt. eigenvalues --    2.18986   2.20646   2.21149   2.22325   2.22611
 Alpha virt. eigenvalues --    2.34055   2.35678   2.39779   2.41959   2.48975
 Alpha virt. eigenvalues --    2.53458   2.55047   2.56763   2.61531   2.62440
 Alpha virt. eigenvalues --    2.64060   2.67088   2.70962   2.75332   2.79332
 Alpha virt. eigenvalues --    2.83923   2.97142   3.03417   3.16328   3.40547
 Alpha virt. eigenvalues --    3.69749   3.97685   4.03792   4.05771   4.10925
 Alpha virt. eigenvalues --    4.18473   4.22883   4.36868   4.39913   4.72429
          Condensed to atoms (all electrons):
               1          2          3          4          5          6
     1  N    6.930302   0.315743  -0.060315  -0.072252   0.485694  -0.068618
     2  C    0.315743   4.709864   0.488216  -0.044920  -0.089918   0.511047
     3  C   -0.060315   0.488216   4.747201   0.237460  -0.092757  -0.054564
     4  N   -0.072252  -0.044920   0.237460   7.079544   0.315352   0.010161
     5  C    0.485694  -0.089918  -0.092757   0.315352   4.776288   0.009192
     6  C   -0.068618   0.511047  -0.054564   0.010161   0.009192   5.085255
     7  C    0.004849  -0.024193  -0.038532  -0.000060  -0.000008   0.498377
     8  C   -0.000176  -0.036575  -0.005546   0.005260   0.000009  -0.030030
     9  C    0.010456  -0.042254   0.485270  -0.084334   0.005926  -0.046020
    10  H    0.003995   0.006828  -0.024438   0.304840  -0.023480  -0.000138
    11  H   -0.038792   0.005369   0.003786  -0.056262   0.379648  -0.000188
    12  H   -0.002067  -0.041309   0.006116  -0.000139   0.000239   0.319358
    13  H   -0.000095   0.002542   0.000847   0.000003   0.000004  -0.036401
    14  H    0.000002   0.000883   0.002421  -0.000112   0.000003   0.003869
    15  H   -0.000131   0.003552  -0.039770  -0.005356  -0.000209   0.000247
    16  O   -0.017836  -0.003234   0.000003  -0.000009   0.000477  -0.004400
    17  H    0.002258  -0.000021  -0.000002   0.000001   0.000015   0.000689
    18  H    0.059540  -0.002407   0.000523   0.000271  -0.002272  -0.000954
               7          8          9         10         11         12
     1  N    0.004849  -0.000176   0.010456   0.003995  -0.038792  -0.002067
     2  C   -0.024193  -0.036575  -0.042254   0.006828   0.005369  -0.041309
     3  C   -0.038532  -0.005546   0.485270  -0.024438   0.003786   0.006116
     4  N   -0.000060   0.005260  -0.084334   0.304840  -0.056262  -0.000139
     5  C   -0.000008   0.000009   0.005926  -0.023480   0.379648   0.000239
     6  C    0.498377  -0.030030  -0.046020  -0.000138  -0.000188   0.319358
     7  C    4.942010   0.521481  -0.035649   0.000005   0.000005  -0.031203
     8  C    0.521481   4.903879   0.520925  -0.000061   0.000003   0.004145
     9  C   -0.035649   0.520925   5.054580  -0.001128  -0.000079   0.000093
    10  H    0.000005  -0.000061  -0.001128   0.388606   0.000672   0.000003
    11  H    0.000005   0.000003  -0.000079   0.000672   0.521072  -0.000001
    12  H   -0.031203   0.004145   0.000093   0.000003  -0.000001   0.536510
    13  H    0.360271  -0.040286   0.004293   0.000000   0.000000  -0.004225
    14  H   -0.038032   0.359730  -0.038992  -0.000002   0.000000  -0.000123
    15  H    0.004080  -0.038742   0.352331   0.001796  -0.000001   0.000013
    16  O    0.000332   0.000001  -0.000001   0.000000   0.000023   0.030048
    17  H   -0.000013   0.000000   0.000000   0.000000   0.000000  -0.001097
    18  H   -0.000066  -0.000004  -0.000008  -0.000004  -0.000143  -0.003206
              13         14         15         16         17         18
     1  N   -0.000095   0.000002  -0.000131  -0.017836   0.002258   0.059540
     2  C    0.002542   0.000883   0.003552  -0.003234  -0.000021  -0.002407
     3  C    0.000847   0.002421  -0.039770   0.000003  -0.000002   0.000523
     4  N    0.000003  -0.000112  -0.005356  -0.000009   0.000001   0.000271
     5  C    0.000004   0.000003  -0.000209   0.000477   0.000015  -0.002272
     6  C   -0.036401   0.003869   0.000247  -0.004400   0.000689  -0.000954
     7  C    0.360271  -0.038032   0.004080   0.000332  -0.000013  -0.000066
     8  C   -0.040286   0.359730  -0.038742   0.000001   0.000000  -0.000004
     9  C    0.004293  -0.038992   0.352331  -0.000001   0.000000  -0.000008
    10  H    0.000000  -0.000002   0.001796   0.000000   0.000000  -0.000004
    11  H    0.000000   0.000000  -0.000001   0.000023   0.000000  -0.000143
    12  H   -0.004225  -0.000123   0.000013   0.030048  -0.001097  -0.003206
    13  H    0.568466  -0.004624  -0.000164  -0.000004   0.000001   0.000001
    14  H   -0.004624   0.571766  -0.004381   0.000000   0.000000   0.000000
    15  H   -0.000164  -0.004381   0.579048   0.000000   0.000000   0.000000
    16  O   -0.000004   0.000000   0.000000   8.355958   0.232284   0.213604
    17  H    0.000001   0.000000   0.000000   0.232284   0.423774  -0.022786
    18  H    0.000001   0.000000   0.000000   0.213604  -0.022786   0.343142
 Mulliken charges:
               1
     1  N   -0.552557
     2  C    0.240786
     3  C    0.344080
     4  N   -0.689448
     5  C    0.235797
     6  C   -0.196883
     7  C   -0.163655
     8  C   -0.164015
     9  C   -0.185408
    10  H    0.342506
    11  H    0.184885
    12  H    0.186845
    13  H    0.149371
    14  H    0.147591
    15  H    0.147686
    16  O   -0.807248
    17  H    0.364898
    18  H    0.414770
 Sum of Mulliken charges =   0.00000
 Mulliken charges with hydrogens summed into heavy atoms:
               1
     1  N   -0.552557
     2  C    0.240786
     3  C    0.344080
     4  N   -0.346942
     5  C    0.420681
     6  C   -0.010038
     7  C   -0.014284
     8  C   -0.016424
     9  C   -0.037722
    16  O   -0.027581
 APT charges:
               1
     1  N   -0.492510
     2  C    0.097902
     3  C    0.134193
     4  N   -0.427980
     5  C    0.327758
     6  C    0.020541
     7  C   -0.053465
     8  C   -0.016481
     9  C   -0.002843
    10  H    0.219988
    11  H    0.055254
    12  H    0.094011
    13  H    0.012363
    14  H    0.011446
    15  H    0.015861
    16  O   -0.624615
    17  H    0.216498
    18  H    0.412081
 Sum of APT charges =   0.00000
 APT charges with hydrogens summed into heavy atoms:
               1
     1  N   -0.492510
     2  C    0.097902
     3  C    0.134193
     4  N   -0.207992
     5  C    0.383012
     6  C    0.114552
     7  C   -0.041102
     8  C   -0.005035
     9  C    0.013018
    16  O    0.003963
 Electronic spatial extent (au):  <R**2>=           1531.6016
 Charge=              0.0000 electrons
 Dipole moment (field-independent basis, Debye):
    X=             -3.7428    Y=              4.0391    Z=              1.4621  Tot=              5.6974
 Quadrupole moment (field-independent basis, Debye-Ang):
   XX=            -62.4963   YY=            -44.0780   ZZ=            -59.7239
   XY=              2.6384   XZ=              5.3624   YZ=             -1.9150
 Traceless Quadrupole moment (field-independent basis, Debye-Ang):
   XX=             -7.0636   YY=             11.3547   ZZ=             -4.2911
   XY=              2.6384   XZ=              5.3624   YZ=             -1.9150
 Octapole moment (field-independent basis, Debye-Ang**2):
  XXX=            -35.8800  YYY=             37.0073  ZZZ=              1.9517  XYY=             -8.5207
  XXY=             20.2438  XXZ=             21.2063  XZZ=             14.2393  YZZ=             -0.2722
  YYZ=              3.0419  XYZ=             -7.9624
 Hexadecapole moment (field-independent basis, Debye-Ang**3):
 XXXX=          -1210.6307 YYYY=           -611.9549 ZZZZ=            -59.9576 XXXY=             38.5453
 XXXZ=             76.9485 YYYX=            -10.2011 YYYZ=             -3.2051 ZZZX=              7.4382
 ZZZY=             -2.7027 XXYY=           -298.6549 XXZZ=           -189.2557 YYZZ=           -146.0193
 XXYZ=            -28.4737 YYXZ=             10.4712 ZZXY=            -15.9362
 N-N= 4.900001274207D+02 E-N=-2.042458631930D+03  KE= 4.524989259432D+02
  Exact polarizability: 109.935   9.884 115.164   0.019   0.003  35.564
 Approx polarizability: 215.984  16.334 237.050  -2.298   1.037  58.554
 Calling FoFJK, ICntrl=    100527 FMM=F ISym2X=0 I1Cent= 0 IOpClX= 0 NMat=1 NMatS=1 NMatT=0.
 Full mass-weighted force constant matrix:
 Low frequencies ---   -6.1563   -3.4665   -0.0007   -0.0006   -0.0004    4.1873
 Low frequencies ---   54.1591   84.3935  164.7182
 Diagonal vibrational polarizability:
       96.6035726      20.6253223      33.1839967
 Harmonic frequencies (cm**-1), IR intensities (KM/Mole), Raman scattering
 activities (A**4/AMU), depolarization ratios for plane and unpolarized
 incident light, reduced masses (AMU), force constants (mDyne/A),
 and normal coordinates:
                      1                      2                      3
                      A                      A                      A
 Frequencies --     54.1590                84.3929               164.7182
 Red. masses --      4.9405                 6.6227                 6.3846
 Frc consts  --      0.0085                 0.0278                 0.1021
 IR Inten    --      2.1501                 4.6873                 1.0670
  Atom  AN      X      Y      Z        X      Y      Z        X      Y      Z
     1   7     0.00  -0.01   0.25     0.02   0.17   0.03     0.07  -0.11   0.00
     2   6    -0.01  -0.01   0.16     0.07   0.09   0.02     0.06  -0.09   0.01
     3   6    -0.01   0.00  -0.06     0.01   0.01  -0.01     0.09  -0.04   0.00
     4   7     0.00   0.00  -0.10    -0.07   0.05  -0.02     0.13  -0.05   0.00
     5   6     0.00  -0.01   0.09    -0.07   0.14   0.01     0.12  -0.09   0.00
     6   6    -0.01  -0.01   0.24     0.16   0.09   0.03     0.01  -0.09   0.01
     7   6    -0.02   0.00   0.11     0.20   0.00   0.02    -0.02  -0.03   0.00
     8   6    -0.02   0.01  -0.11     0.15  -0.08  -0.01     0.01   0.01  -0.01
     9   6    -0.01   0.01  -0.20     0.05  -0.08  -0.03     0.07   0.01  -0.01
    10   1     0.00   0.00  -0.23    -0.13   0.01  -0.03     0.15  -0.04   0.00
    11   1     0.01  -0.01   0.10    -0.13   0.18   0.01     0.16  -0.12   0.00
    12   1    -0.01  -0.01   0.37     0.21   0.15   0.04    -0.01  -0.11   0.02
    13   1    -0.02   0.00   0.17     0.28  -0.01   0.02    -0.06  -0.03   0.00
    14   1    -0.02   0.01  -0.21     0.18  -0.15  -0.02    -0.01   0.05  -0.02
    15   1    -0.01   0.02  -0.38     0.01  -0.14  -0.05     0.09   0.05  -0.02
    16   8     0.03   0.02  -0.28    -0.38  -0.29  -0.04    -0.41   0.34  -0.01
    17   1     0.38  -0.01  -0.33    -0.38  -0.33  -0.04    -0.29   0.39  -0.02
    18   1    -0.02   0.01  -0.06    -0.13  -0.12  -0.02    -0.37   0.38   0.01
                      4                      5                      6
                      A                      A                      A
 Frequencies --    216.6585               228.0892               252.8131
 Red. masses --      2.4483                 1.4516                 3.5110
 Frc consts  --      0.0677                 0.0445                 0.1322
 IR Inten    --     31.4267                68.7963                12.4711
  Atom  AN      X      Y      Z        X      Y      Z        X      Y      Z
     1   7     0.00   0.00  -0.06     0.00   0.00   0.04     0.00   0.00  -0.22
     2   6     0.00   0.00   0.15     0.00   0.00   0.10     0.00   0.00  -0.06
     3   6     0.00   0.00   0.17     0.00   0.00   0.07     0.00   0.00   0.06
     4   7     0.00   0.00   0.03     0.00   0.00  -0.05     0.01   0.00   0.25
     5   6    -0.01   0.00  -0.16     0.00   0.00  -0.07     0.00   0.00  -0.02
     6   6     0.00   0.00   0.09     0.00   0.00   0.03     0.00   0.00   0.14
     7   6     0.00   0.00  -0.11     0.00   0.00  -0.06     0.00   0.00   0.16
     8   6     0.00   0.00  -0.14     0.00   0.00  -0.03     0.00   0.00  -0.14
     9   6     0.00   0.00   0.07     0.00   0.00   0.05     0.00   0.00  -0.16
    10   1    -0.01   0.00  -0.10     0.00   0.00  -0.15     0.01   0.00   0.26
    11   1    -0.01   0.01  -0.36     0.00   0.00  -0.17     0.00   0.00  -0.03
    12   1     0.01   0.00   0.12     0.00   0.00  -0.05     0.00   0.00   0.21
    13   1     0.00   0.01  -0.25    -0.01   0.00  -0.17     0.01  -0.01   0.32
    14   1    -0.01   0.00  -0.30     0.00   0.00  -0.08    -0.01   0.00  -0.29
    15   1     0.00   0.00   0.05     0.00   0.00   0.04    -0.01   0.00  -0.30
    16   8    -0.03  -0.04   0.02     0.04   0.04  -0.02     0.04   0.01  -0.01
    17   1     0.55   0.49  -0.02    -0.74  -0.56   0.04    -0.58  -0.12   0.06
    18   1    -0.04  -0.06  -0.12     0.06   0.06   0.07     0.05   0.00  -0.21
                      7                      8                      9
                      A                      A                      A
 Frequencies --    349.6324               407.2816               426.9638
 Red. masses --      1.0847                 4.3203                 3.0507
 Frc consts  --      0.0781                 0.4222                 0.3277
 IR Inten    --     66.8940                 1.7136                17.8006
  Atom  AN      X      Y      Z        X      Y      Z        X      Y      Z
     1   7     0.00   0.00   0.04     0.11   0.17   0.00     0.00   0.00  -0.05
     2   6     0.00   0.00   0.02     0.23  -0.07   0.00     0.00   0.00  -0.15
     3   6     0.00   0.00  -0.01     0.15  -0.19   0.00     0.00   0.00  -0.15
     4   7     0.00   0.00  -0.04    -0.11  -0.15   0.00     0.00   0.00  -0.07
     5   6     0.00   0.00   0.03    -0.13   0.10   0.00     0.00   0.00   0.08
     6   6     0.00   0.00   0.00    -0.01  -0.10  -0.01     0.00   0.00   0.23
     7   6     0.00   0.00  -0.01    -0.13   0.08   0.01     0.00   0.00  -0.08
     8   6     0.00   0.00   0.01    -0.12   0.10   0.01     0.00   0.00  -0.13
     9   6     0.00   0.00   0.01     0.08   0.05  -0.01     0.01   0.00   0.22
    10   1     0.00   0.00   0.04    -0.32  -0.29   0.00     0.00  -0.01   0.28
    11   1     0.00   0.00   0.04    -0.30   0.22   0.01     0.00   0.00   0.19
    12   1     0.00  -0.01   0.00    -0.16  -0.32  -0.01     0.01  -0.01   0.56
    13   1     0.00   0.00  -0.03    -0.20   0.09   0.01     0.00   0.00  -0.07
    14   1     0.00   0.00   0.03    -0.15   0.15   0.01    -0.01   0.00  -0.16
    15   1     0.00   0.00   0.02     0.23   0.27  -0.01     0.02   0.00   0.58
    16   8     0.02  -0.03   0.00     0.00  -0.01   0.00     0.00   0.01  -0.01
    17   1    -0.45   0.58   0.11     0.02  -0.03  -0.01    -0.07  -0.10  -0.01
    18   1     0.04  -0.09  -0.65     0.18   0.11   0.01     0.00   0.01   0.04
                     10                     11                     12
                      A                      A                      A
 Frequencies --    450.3519               538.3919               575.9599
 Red. masses --      1.4294                 6.9124                 3.4537
 Frc consts  --      0.1708                 1.1805                 0.6750
 IR Inten    --     97.3675                 0.3053                 6.4066
  Atom  AN      X      Y      Z        X      Y      Z        X      Y      Z
     1   7     0.00   0.00  -0.04     0.14   0.17   0.00     0.00   0.00   0.07
     2   6     0.00   0.00   0.04     0.05   0.10   0.00     0.00   0.00  -0.11
     3   6     0.00   0.00   0.09     0.08   0.07   0.00     0.00   0.00   0.14
     4   7     0.00   0.00  -0.14     0.10   0.17   0.00     0.00   0.00  -0.10
     5   6     0.00   0.00   0.03     0.13   0.17   0.00     0.00   0.00   0.04
     6   6     0.00   0.00  -0.02    -0.28   0.04   0.00     0.00   0.00  -0.17
     7   6     0.00   0.00   0.03    -0.20  -0.25   0.00     0.01   0.00   0.24
     8   6     0.00   0.00  -0.01    -0.18  -0.27   0.00     0.00   0.00  -0.24
     9   6     0.00   0.00  -0.02     0.13  -0.25  -0.01     0.00   0.00   0.17
    10   1     0.02  -0.01   0.96     0.13   0.19   0.00    -0.01   0.00  -0.47
    11   1     0.00   0.00   0.08     0.12   0.18   0.00     0.00   0.00   0.13
    12   1     0.00   0.00  -0.09    -0.32  -0.01   0.01     0.00   0.00  -0.18
    13   1     0.00   0.00   0.02     0.05  -0.27   0.00     0.01  -0.01   0.48
    14   1     0.00   0.00  -0.08    -0.29  -0.06   0.01    -0.01   0.01  -0.51
    15   1     0.00   0.00  -0.14     0.11  -0.27  -0.01     0.00   0.00   0.10
    16   8     0.00   0.00   0.00     0.00   0.00   0.00     0.00   0.00   0.00
    17   1     0.05  -0.04  -0.01     0.03   0.01   0.00     0.00   0.04   0.00
    18   1     0.00   0.01   0.05     0.14   0.09   0.00     0.00   0.00  -0.02
                     13                     14                     15
                      A                      A                      A
 Frequencies --    615.3452               638.8509               709.3374
 Red. masses --      6.4658                 2.6094                 1.0648
 Frc consts  --      1.4425                 0.6275                 0.3157
 IR Inten    --      1.5668                 2.6532               230.3577
  Atom  AN      X      Y      Z        X      Y      Z        X      Y      Z
     1   7     0.21  -0.03   0.00     0.00   0.00   0.22    -0.01   0.01   0.00
     2   6     0.09   0.14   0.00     0.00   0.00  -0.07     0.01   0.01   0.00
     3   6    -0.12  -0.13   0.00     0.00   0.00  -0.12     0.02  -0.02   0.00
     4   7     0.09  -0.18   0.00     0.00   0.00   0.12     0.01  -0.02   0.00
     5   6     0.11  -0.08   0.00     0.00   0.00  -0.21     0.01   0.02   0.00
     6   6     0.04   0.27   0.00     0.00   0.00  -0.06     0.00   0.02   0.00
     7   6     0.04   0.28   0.00     0.00   0.00   0.05     0.00   0.02   0.00
     8   6    -0.24  -0.13   0.00     0.00   0.00  -0.05    -0.02  -0.01   0.00
     9   6    -0.27  -0.12   0.01     0.00   0.00   0.02     0.02  -0.01   0.00
    10   1     0.20  -0.11  -0.01     0.01  -0.01   0.65    -0.01  -0.03   0.00
    11   1    -0.02   0.01   0.00    -0.01   0.01  -0.59     0.00   0.02   0.01
    12   1    -0.02   0.19   0.00     0.00   0.00   0.07    -0.03  -0.02   0.01
    13   1     0.32   0.26   0.00     0.00   0.00   0.20     0.03   0.02   0.00
    14   1    -0.11  -0.40   0.00     0.00   0.00   0.02    -0.02  -0.01   0.00
    15   1    -0.21  -0.04   0.01     0.01   0.00   0.21     0.04   0.01   0.00
    16   8    -0.02   0.01   0.00     0.00   0.00   0.00     0.03   0.02   0.00
    17   1     0.01   0.01   0.00    -0.02   0.01   0.00    -0.05  -0.01   0.01
    18   1     0.16   0.11  -0.01    -0.01  -0.01  -0.01    -0.84  -0.53   0.06
                     16                     17                     18
                      A                      A                      A
 Frequencies --    747.8811               757.6814               778.0582
 Red. masses --      1.6658                 2.7277                 5.1680
 Frc consts  --      0.5490                 0.9226                 1.8433
 IR Inten    --     42.4475                17.1435                 7.5062
  Atom  AN      X      Y      Z        X      Y      Z        X      Y      Z
     1   7     0.00   0.00  -0.03     0.00   0.00  -0.11    -0.04  -0.15   0.00
     2   6     0.00   0.00   0.08     0.01   0.00   0.28    -0.04   0.10   0.00
     3   6     0.00   0.00  -0.17     0.00   0.00  -0.16     0.11   0.00   0.00
     4   7     0.00   0.00   0.03     0.00   0.00   0.01    -0.12  -0.08   0.00
     5   6     0.00   0.00   0.03     0.00   0.00   0.07    -0.12  -0.19   0.00
     6   6     0.00   0.00   0.00     0.00   0.00  -0.09    -0.17   0.30   0.01
     7   6     0.00   0.00   0.09     0.00   0.00   0.06    -0.01   0.07   0.00
     8   6     0.00   0.00   0.03     0.00   0.00  -0.14     0.05   0.00   0.00
     9   6     0.00   0.00   0.11     0.00   0.00  -0.01     0.34  -0.06  -0.01
    10   1     0.00   0.00   0.06     0.00   0.00   0.03    -0.16  -0.12   0.00
    11   1     0.00   0.00  -0.14     0.00   0.00  -0.14    -0.13  -0.19   0.00
    12   1    -0.01   0.00  -0.37     0.00   0.01  -0.11    -0.11   0.42   0.02
    13   1    -0.01   0.01  -0.52     0.01  -0.01   0.37     0.26   0.05  -0.01
    14   1    -0.01   0.01  -0.60     0.01   0.00   0.48    -0.05   0.23  -0.01
    15   1    -0.01   0.00  -0.40     0.02  -0.01   0.67     0.44   0.07  -0.03
    16   8     0.00   0.00   0.00     0.00   0.00   0.00    -0.01   0.00   0.00
    17   1     0.02   0.01   0.00     0.01  -0.01   0.00     0.01   0.01   0.00
    18   1    -0.01  -0.01   0.00    -0.01   0.00   0.01     0.12   0.08  -0.01
                     19                     20                     21
                      A                      A                      A
 Frequencies --    817.4501               854.5509               876.3632
 Red. masses --      1.3586                 1.3578                 5.4316
 Frc consts  --      0.5349                 0.5842                 2.4578
 IR Inten    --      9.5123                 2.0899                 7.3358
  Atom  AN      X      Y      Z        X      Y      Z        X      Y      Z
     1   7     0.00   0.00  -0.02     0.00   0.00  -0.01    -0.24  -0.07   0.00
     2   6     0.00   0.00  -0.05     0.00   0.00   0.06     0.03  -0.09   0.00
     3   6     0.00   0.00   0.03     0.00   0.00  -0.05     0.10   0.00   0.00
     4   7     0.00   0.00  -0.03     0.00   0.00   0.01     0.00   0.22   0.00
     5   6     0.00   0.00   0.16     0.00   0.00  -0.02    -0.01   0.01   0.00
     6   6     0.00   0.00   0.00     0.00   0.00  -0.05     0.20  -0.10   0.00
     7   6     0.00   0.00  -0.02     0.00   0.00  -0.10     0.02   0.28   0.00
     8   6     0.00   0.00   0.02     0.00   0.00   0.01    -0.27  -0.12   0.00
     9   6     0.00   0.00  -0.01     0.00   0.00   0.11     0.14  -0.14   0.00
    10   1     0.00   0.00  -0.06     0.00   0.00   0.02    -0.01   0.23   0.01
    11   1    -0.02   0.01  -0.97     0.00   0.00   0.11     0.34  -0.23  -0.01
    12   1     0.00   0.00   0.11     0.01   0.00   0.35     0.06  -0.31  -0.01
    13   1     0.00   0.00   0.10     0.01  -0.01   0.62     0.12   0.27   0.05
    14   1     0.00   0.00  -0.02     0.00   0.00   0.01    -0.21  -0.22   0.02
    15   1     0.00   0.00  -0.09    -0.02   0.01  -0.67     0.30   0.10  -0.04
    16   8     0.00   0.00   0.00     0.00   0.00   0.00     0.00  -0.01   0.00
    17   1     0.00  -0.01   0.00    -0.01  -0.02   0.00     0.00   0.00   0.00
    18   1     0.00   0.00   0.00     0.00   0.00   0.00     0.12   0.08  -0.01
                     22                     23                     24
                      A                      A                      A
 Frequencies --    930.4518               934.1571               985.9259
 Red. masses --      1.3006                 5.9996                 1.2313
 Frc consts  --      0.6634                 3.0847                 0.7052
 IR Inten    --      2.3378                 8.5314                 1.4521
  Atom  AN      X      Y      Z        X      Y      Z        X      Y      Z
     1   7    -0.01   0.00  -0.01     0.35  -0.10  -0.01     0.00   0.00  -0.01
     2   6     0.00   0.00   0.05     0.16  -0.02   0.00     0.00   0.00   0.02
     3   6     0.00   0.00  -0.01    -0.07   0.14   0.00     0.00   0.00   0.01
     4   7     0.00   0.00   0.00    -0.23   0.27   0.01     0.00   0.00   0.00
     5   6     0.00   0.00   0.00    -0.18  -0.24   0.00     0.00   0.00   0.00
     6   6     0.00   0.00  -0.07     0.05  -0.07  -0.01     0.00   0.00  -0.11
     7   6     0.00   0.00  -0.03    -0.03   0.01   0.00     0.00   0.00   0.08
     8   6     0.00   0.00   0.12     0.01  -0.02   0.01     0.00   0.00  -0.02
     9   6     0.00   0.00  -0.07    -0.03   0.01   0.00     0.00   0.00   0.01
    10   1     0.00  -0.01   0.00     0.17   0.54   0.00     0.00   0.00   0.00
    11   1     0.01   0.00   0.06    -0.25  -0.20   0.01     0.00   0.00   0.01
    12   1     0.01   0.00   0.39    -0.07  -0.25   0.02     0.02  -0.01   0.78
    13   1     0.01   0.00   0.21    -0.10   0.01   0.03    -0.01   0.01  -0.55
    14   1    -0.02   0.01  -0.76     0.02  -0.06  -0.06     0.01  -0.01   0.22
    15   1     0.01   0.00   0.44    -0.11  -0.10   0.04     0.00   0.00  -0.12
    16   8     0.00   0.00   0.00     0.00   0.01   0.00     0.00   0.00   0.00
    17   1    -0.01  -0.01   0.00    -0.01  -0.01   0.00    -0.02  -0.02   0.00
    18   1     0.01   0.01   0.00    -0.21  -0.13   0.02     0.00   0.00   0.00
                     25                     26                     27
                      A                      A                      A
 Frequencies --   1021.8841              1101.0369              1121.2728
 Red. masses --      2.1421                 1.6799                 1.8569
 Frc consts  --      1.3179                 1.1998                 1.3755
 IR Inten    --      5.9872                15.0657                 0.0164
  Atom  AN      X      Y      Z        X      Y      Z        X      Y      Z
     1   7    -0.02   0.01   0.00    -0.03   0.05   0.00    -0.08   0.00   0.00
     2   6     0.02  -0.02   0.00    -0.03   0.00   0.00     0.10  -0.02   0.00
     3   6    -0.02   0.00   0.00    -0.03   0.01   0.00     0.05  -0.06   0.00
     4   7     0.01   0.00   0.00     0.14  -0.04   0.00     0.05   0.04   0.00
     5   6     0.02   0.02   0.00    -0.15  -0.04   0.00    -0.08  -0.02   0.00
     6   6    -0.12  -0.03   0.00     0.03  -0.02   0.00    -0.12   0.04   0.00
     7   6    -0.04   0.18   0.00    -0.02   0.02   0.00     0.07  -0.04   0.00
     8   6     0.19   0.03   0.00    -0.01   0.00   0.00     0.03  -0.04   0.00
     9   6     0.01  -0.12   0.00     0.05  -0.03   0.00    -0.08   0.11   0.00
    10   1     0.00  -0.01   0.00     0.69   0.31  -0.01     0.22   0.16   0.00
    11   1     0.04   0.01   0.00    -0.53   0.21   0.01     0.05  -0.11   0.00
    12   1    -0.41  -0.44   0.00     0.07   0.03   0.00    -0.37  -0.32   0.00
    13   1    -0.22   0.21   0.01    -0.11   0.03   0.00     0.55  -0.08  -0.01
    14   1     0.29  -0.15  -0.01    -0.06   0.11   0.00     0.18  -0.34  -0.01
    15   1    -0.25  -0.52   0.00     0.03  -0.07   0.00     0.09   0.37   0.00
    16   8     0.00   0.00   0.00     0.00   0.00   0.00     0.00   0.00   0.00
    17   1     0.00   0.00   0.00     0.00   0.00   0.00     0.00   0.00   0.00
    18   1     0.03   0.02   0.00     0.00   0.00   0.00     0.02   0.01   0.00
                     28                     29                     30
                      A                      A                      A
 Frequencies --   1170.8712              1193.9429              1271.7282
 Red. masses --      1.1606                 1.8766                 2.2473
 Frc consts  --      0.9375                 1.5761                 2.1415
 IR Inten    --      1.4383                 3.6485                13.9734
  Atom  AN      X      Y      Z        X      Y      Z        X      Y      Z
     1   7    -0.03  -0.02   0.00     0.08  -0.03   0.00    -0.09  -0.11   0.00
     2   6     0.05   0.02   0.00    -0.14  -0.02   0.00     0.17   0.03   0.00
     3   6    -0.01   0.04   0.00    -0.03   0.14   0.00     0.10   0.16   0.00
     4   7     0.00  -0.02   0.00    -0.01  -0.06   0.00     0.05  -0.03   0.00
     5   6     0.00   0.00   0.00     0.05   0.03   0.00    -0.05   0.01   0.00
     6   6     0.02   0.00   0.00    -0.01  -0.08   0.00     0.02   0.03   0.00
     7   6     0.04  -0.02   0.00     0.06   0.05   0.00    -0.05  -0.03   0.00
     8   6    -0.04   0.05   0.00    -0.03  -0.05   0.00    -0.04  -0.06   0.00
     9   6    -0.01  -0.01   0.00     0.06   0.04   0.00    -0.02   0.08   0.00
    10   1    -0.03  -0.05   0.00    -0.21  -0.19   0.00    -0.30  -0.27   0.00
    11   1     0.00  -0.01   0.00    -0.47   0.39   0.01    -0.36   0.20   0.01
    12   1    -0.16  -0.27   0.00    -0.21  -0.36   0.00     0.11   0.16   0.00
    13   1     0.50  -0.07  -0.01     0.38   0.02  -0.01    -0.25  -0.02   0.01
    14   1    -0.31   0.58   0.01     0.06  -0.24   0.00     0.13  -0.43  -0.01
    15   1    -0.25  -0.38   0.00     0.20   0.25   0.00    -0.34  -0.37   0.00
    16   8     0.00   0.00   0.00     0.00   0.00   0.00     0.00   0.00   0.00
    17   1     0.00   0.00   0.00     0.00   0.00   0.00     0.00   0.00   0.00
    18   1     0.01   0.01   0.00     0.01   0.01   0.00     0.00   0.00   0.00
                     31                     32                     33
                      A                      A                      A
 Frequencies --   1280.9982              1326.4285              1385.4189
 Red. masses --      2.1873                 2.2453                 3.1504
 Frc consts  --      2.1148                 2.3275                 3.5627
 IR Inten    --     20.1599                 9.4334                40.1041
  Atom  AN      X      Y      Z        X      Y      Z        X      Y      Z
     1   7     0.06  -0.05   0.00     0.04   0.18   0.00     0.06   0.03   0.00
     2   6    -0.08  -0.14   0.00    -0.07  -0.11   0.00    -0.13   0.17   0.01
     3   6     0.12  -0.12   0.00     0.02   0.10   0.00     0.15   0.00   0.00
     4   7     0.04   0.12   0.00     0.03  -0.07   0.00     0.14   0.05   0.00
     5   6    -0.03   0.06   0.00    -0.07  -0.10   0.00    -0.17  -0.08   0.00
     6   6    -0.10  -0.02   0.00     0.00  -0.03   0.00    -0.02  -0.05   0.00
     7   6     0.03   0.05   0.00    -0.06   0.04   0.00     0.17  -0.04   0.00
     8   6    -0.01   0.06   0.00    -0.03  -0.05   0.00    -0.07   0.08   0.00
     9   6    -0.04  -0.01   0.00     0.06   0.09   0.00    -0.07  -0.08   0.00
    10   1    -0.16   0.00   0.00    -0.01  -0.12   0.00    -0.47  -0.37   0.01
    11   1    -0.31   0.26   0.01     0.45  -0.47  -0.01     0.12  -0.31  -0.01
    12   1     0.27   0.55   0.00     0.15   0.19   0.00    -0.21  -0.32   0.00
    13   1     0.42   0.02  -0.01     0.38   0.00  -0.01    -0.44   0.02   0.01
    14   1     0.03  -0.02   0.00     0.09  -0.29  -0.01    -0.02  -0.04   0.00
    15   1    -0.24  -0.30   0.00    -0.23  -0.33   0.00    -0.02   0.01   0.00
    16   8     0.00   0.00   0.00     0.00   0.00   0.00     0.00   0.00   0.00
    17   1     0.00   0.00   0.00     0.00   0.00   0.00     0.00   0.00   0.00
    18   1    -0.02  -0.01   0.00    -0.02  -0.02   0.00     0.01   0.00   0.00
                     34                     35                     36
                      A                      A                      A
 Frequencies --   1420.7174              1477.3076              1515.1453
 Red. masses --      2.8095                 2.3976                 3.5133
 Frc consts  --      3.3412                 3.0829                 4.7520
 IR Inten    --     18.7738                20.1846                10.5335
  Atom  AN      X      Y      Z        X      Y      Z        X      Y      Z
     1   7    -0.02  -0.01   0.00    -0.01   0.04   0.00    -0.07   0.15   0.00
     2   6     0.04   0.13   0.00    -0.12   0.03   0.00     0.02  -0.16   0.00
     3   6     0.08   0.06   0.00     0.07  -0.15   0.00     0.15   0.10   0.00
     4   7    -0.14  -0.10   0.00    -0.07   0.04   0.00    -0.10  -0.02   0.00
     5   6     0.07   0.02   0.00     0.10  -0.07   0.00     0.14  -0.16   0.00
     6   6    -0.09  -0.15   0.00     0.11   0.11   0.00    -0.12   0.04   0.00
     7   6     0.10  -0.02   0.00    -0.02  -0.08   0.00     0.20   0.04   0.00
     8   6    -0.10   0.19   0.00    -0.07   0.03   0.00    -0.01  -0.11   0.00
     9   6     0.01  -0.09   0.00     0.08   0.12   0.00    -0.10   0.01   0.00
    10   1     0.53   0.34  -0.01     0.14   0.19   0.00     0.15   0.14   0.00
    11   1     0.14  -0.02   0.00    -0.22   0.16   0.01    -0.31   0.14   0.01
    12   1     0.16   0.22   0.00    -0.26  -0.45   0.00    -0.09   0.13   0.00
    13   1     0.17  -0.03   0.00    -0.13  -0.09   0.00    -0.57   0.13   0.02
    14   1     0.24  -0.49  -0.01     0.10  -0.34  -0.01    -0.28   0.40   0.01
    15   1    -0.02  -0.15   0.00    -0.32  -0.48   0.00    -0.07   0.11   0.00
    16   8     0.00   0.00   0.00     0.00   0.00   0.00     0.00   0.00   0.00
    17   1     0.00   0.00   0.00     0.00   0.00   0.00     0.00   0.00   0.00
    18   1     0.00   0.00   0.00     0.02   0.01   0.00    -0.01  -0.01  -0.01
                     37                     38                     39
                      A                      A                      A
 Frequencies --   1520.8757              1611.1543              1645.3514
 Red. masses --      3.1571                 6.1249                 6.1734
 Frc consts  --      4.3026                 9.3675                 9.8467
 IR Inten    --     36.3642                 5.3285                 8.9678
  Atom  AN      X      Y      Z        X      Y      Z        X      Y      Z
     1   7     0.09  -0.14   0.00     0.00  -0.04   0.00     0.04  -0.05   0.00
     2   6    -0.06  -0.07   0.00    -0.11   0.34   0.01    -0.13  -0.18   0.00
     3   6     0.01   0.01   0.00     0.27  -0.07  -0.01     0.32   0.19   0.00
     4   7    -0.04  -0.08   0.00    -0.08  -0.04   0.00    -0.07  -0.08   0.00
     5   6    -0.12   0.25   0.01     0.01  -0.02   0.00    -0.07   0.11   0.00
     6   6    -0.04   0.04   0.00     0.02  -0.23   0.00     0.20   0.22   0.00
     7   6     0.15   0.02   0.00    -0.18   0.14   0.01    -0.21  -0.07   0.00
     8   6    -0.05  -0.12   0.00     0.17  -0.29  -0.01     0.07   0.10   0.00
     9   6     0.06   0.14   0.00    -0.11   0.14   0.00    -0.22  -0.22   0.00
    10   1     0.37   0.19  -0.01     0.22   0.16   0.00     0.33   0.17  -0.01
    11   1     0.50  -0.14  -0.01     0.00  -0.01   0.00     0.19  -0.06   0.00
    12   1    -0.14  -0.07   0.00     0.25   0.08   0.00    -0.17  -0.34   0.00
    13   1    -0.46   0.08   0.01     0.29   0.10  -0.01     0.21  -0.12  -0.01
    14   1    -0.18   0.10   0.01    -0.21   0.46   0.01     0.13   0.01   0.00
    15   1    -0.19  -0.23   0.00    -0.20   0.05   0.00     0.14   0.34   0.00
    16   8     0.00   0.00   0.00     0.00   0.00   0.00     0.00   0.00   0.00
    17   1     0.00   0.01   0.00     0.00  -0.01   0.00    -0.02   0.02   0.00
    18   1     0.01   0.01   0.01     0.01   0.00  -0.01     0.00   0.01   0.03
                     40                     41                     42
                      A                      A                      A
 Frequencies --   1734.8539              3152.1499              3163.2208
 Red. masses --      1.0791                 1.0850                 1.0894
 Frc consts  --      1.9135                 6.3518                 6.4224
 IR Inten    --     82.7836                 1.0294                22.5668
  Atom  AN      X      Y      Z        X      Y      Z        X      Y      Z
     1   7     0.00   0.00   0.00     0.00   0.00   0.00     0.00   0.00   0.00
     2   6     0.00   0.00   0.00     0.00   0.00   0.00     0.00   0.00   0.00
     3   6     0.00   0.00   0.00     0.00   0.00   0.00     0.00   0.00   0.00
     4   7     0.00   0.00   0.00     0.00   0.00   0.00     0.00   0.00   0.00
     5   6     0.00   0.00   0.00     0.00   0.00   0.00     0.00   0.00   0.00
     6   6     0.00   0.00   0.00     0.01  -0.01   0.00     0.02  -0.02   0.00
     7   6     0.00   0.00   0.00     0.00   0.04   0.00     0.00   0.06   0.00
     8   6     0.00   0.00   0.00    -0.05  -0.03   0.00     0.01   0.00   0.00
     9   6     0.00   0.00   0.00     0.03  -0.02   0.00    -0.05   0.03   0.00
    10   1     0.00   0.00   0.00     0.00   0.00   0.00     0.00   0.00   0.00
    11   1     0.00   0.00   0.00     0.00   0.00   0.00     0.00   0.00   0.00
    12   1     0.00   0.00   0.00    -0.14   0.09   0.01    -0.28   0.19   0.01
    13   1     0.00   0.00   0.00    -0.05  -0.51  -0.01    -0.06  -0.65  -0.01
    14   1     0.00   0.00   0.00     0.62   0.31  -0.01    -0.10  -0.05   0.00
    15   1     0.00   0.00   0.00    -0.39   0.26   0.01     0.55  -0.37  -0.02
    16   8    -0.02   0.04   0.05     0.00   0.00   0.00     0.00   0.00   0.00
    17   1     0.33  -0.55  -0.10     0.00   0.00   0.00     0.00   0.00   0.00
    18   1     0.00  -0.10  -0.75     0.00   0.00   0.00     0.00   0.00   0.00
                     43                     44                     45
                      A                      A                      A
 Frequencies --   3174.0871              3181.1286              3238.1877
 Red. masses --      1.0940                 1.0969                 1.0960
 Frc consts  --      6.4939                 6.5401                 6.7714
 IR Inten    --     11.6511                25.4767                 3.7154
  Atom  AN      X      Y      Z        X      Y      Z        X      Y      Z
     1   7     0.00   0.00   0.00     0.00   0.00   0.00     0.00   0.00   0.00
     2   6     0.00   0.00   0.00     0.00   0.00   0.00     0.00   0.00   0.00
     3   6     0.00   0.00   0.00     0.00   0.00   0.00     0.00   0.00   0.00
     4   7     0.00   0.00   0.00     0.00   0.00   0.00     0.00   0.00   0.00
     5   6     0.00   0.00   0.00     0.00   0.00   0.00    -0.05  -0.07   0.00
     6   6    -0.04   0.03   0.00    -0.05   0.03   0.00     0.00   0.00   0.00
     7   6     0.00  -0.01   0.00     0.01   0.05   0.00     0.00   0.00   0.00
     8   6    -0.05  -0.02   0.00     0.03   0.02   0.00     0.00   0.00   0.00
     9   6    -0.04   0.03   0.00     0.02  -0.01   0.00     0.00   0.00   0.00
    10   1     0.00   0.00   0.00     0.00   0.00   0.00     0.00  -0.02   0.00
    11   1     0.00   0.00   0.00     0.00   0.00   0.00     0.56   0.82  -0.01
    12   1     0.51  -0.34  -0.02     0.57  -0.38  -0.02     0.00   0.00   0.00
    13   1     0.01   0.11   0.00    -0.05  -0.54  -0.01     0.00   0.00   0.00
    14   1     0.52   0.26  -0.01    -0.36  -0.18   0.01     0.00   0.00   0.00
    15   1     0.43  -0.29  -0.01    -0.20   0.14   0.01     0.00   0.00   0.00
    16   8     0.00   0.00   0.00     0.00   0.00   0.00     0.00   0.00   0.00
    17   1     0.00   0.00   0.00     0.00   0.00   0.00     0.00   0.00   0.00
    18   1     0.00   0.01   0.00     0.00   0.00   0.00     0.01  -0.02   0.00
                     46                     47                     48
                      A                      A                      A
 Frequencies --   3440.6582              3584.4980              3694.6966
 Red. masses --      1.0568                 1.0806                 1.0695
 Frc consts  --      7.3709                 8.1800                 8.6022
 IR Inten    --    420.3445                42.6204                40.3217
  Atom  AN      X      Y      Z        X      Y      Z        X      Y      Z
     1   7     0.00   0.00   0.00     0.00   0.00   0.00     0.00   0.00   0.00
     2   6     0.00   0.00   0.00     0.00   0.00   0.00     0.00   0.00   0.00
     3   6     0.00   0.00   0.00     0.00   0.00   0.00     0.00   0.00   0.00
     4   7     0.00   0.00   0.00     0.04  -0.06   0.00     0.00   0.00   0.00
     5   6     0.00   0.00   0.00     0.00   0.00   0.00     0.00   0.00   0.00
     6   6     0.00   0.00   0.00     0.00   0.00   0.00     0.00   0.00   0.00
     7   6     0.00   0.00   0.00     0.00   0.00   0.00     0.00   0.00   0.00
     8   6     0.00   0.00   0.00     0.00   0.00   0.00     0.00   0.00   0.00
     9   6     0.00   0.00   0.00     0.00   0.00   0.00     0.00   0.00   0.00
    10   1    -0.01   0.00   0.00    -0.55   0.83   0.02     0.00   0.00   0.00
    11   1     0.01   0.01   0.00     0.01   0.01   0.00     0.00   0.00   0.00
    12   1    -0.01   0.00   0.00     0.00   0.00   0.00     0.00   0.00   0.00
    13   1     0.00   0.00   0.00     0.00   0.00   0.00     0.00   0.00   0.00
    14   1     0.00   0.00   0.00     0.00   0.00   0.00     0.00   0.00   0.00
    15   1     0.00   0.00   0.00     0.00   0.00   0.00     0.00   0.00   0.00
    16   8     0.03  -0.05   0.00     0.00   0.00   0.00     0.02  -0.02   0.06
    17   1     0.05  -0.05   0.21     0.00   0.00   0.00    -0.15   0.09  -0.96
    18   1    -0.52   0.81  -0.14     0.00   0.00   0.00    -0.11   0.17   0.01

 -------------------
 - Thermochemistry -
 -------------------
 Temperature   298.150 Kelvin.  Pressure   1.00000 Atm.
 Atom     1 has atomic number  7 and mass  14.00307
 Atom     2 has atomic number  6 and mass  12.00000
 Atom     3 has atomic number  6 and mass  12.00000
 Atom     4 has atomic number  7 and mass  14.00307
 Atom     5 has atomic number  6 and mass  12.00000
 Atom     6 has atomic number  6 and mass  12.00000
 Atom     7 has atomic number  6 and mass  12.00000
 Atom     8 has atomic number  6 and mass  12.00000
 Atom     9 has atomic number  6 and mass  12.00000
 Atom    10 has atomic number  1 and mass   1.00783
 Atom    11 has atomic number  1 and mass   1.00783
 Atom    12 has atomic number  1 and mass   1.00783
 Atom    13 has atomic number  1 and mass   1.00783
 Atom    14 has atomic number  1 and mass   1.00783
 Atom    15 has atomic number  1 and mass   1.00783
 Atom    16 has atomic number  8 and mass  15.99491
 Atom    17 has atomic number  1 and mass   1.00783
 Atom    18 has atomic number  1 and mass   1.00783
 Molecular mass:   136.06366 amu.
 Principal axes and moments of inertia in atomic units:
                           1         2         3
     Eigenvalues --   982.985741536.184492512.19775
           X            0.99998   0.00200   0.00576
           Y           -0.00198   0.99999  -0.00297
           Z           -0.00577   0.00296   0.99998
 This molecule is an asymmetric top.
 Rotational symmetry number  1.
 Warning -- assumption of classical behavior for rotation
           may cause significant error
 Rotational temperatures (Kelvin)      0.08811     0.05638     0.03448
 Rotational constants (GHZ):           1.83598     1.17482     0.71839
 Zero-point vibrational energy     369784.1 (Joules/Mol)
                                   88.38053 (Kcal/Mol)
 Warning -- explicit consideration of  13 degrees of freedom as
           vibrations may cause significant error
 Vibrational temperatures:     77.92   121.42   236.99   311.72   328.17
          (Kelvin)            363.74   503.04   585.99   614.30   647.96
                              774.62   828.68   885.34   919.16  1020.58
                             1076.03  1090.13  1119.45  1176.13  1229.51
                             1260.89  1338.71  1344.04  1418.53  1470.26
                             1584.14  1613.26  1684.62  1717.82  1829.73
                             1843.07  1908.43  1993.31  2044.09  2125.51
                             2179.95  2188.20  2318.09  2367.29  2496.06
                             4535.23  4551.16  4566.80  4576.93  4659.02
                             4950.33  5157.29  5315.84
 
 Zero-point correction=                           0.140843 (Hartree/Particle)
 Thermal correction to Energy=                    0.150195
 Thermal correction to Enthalpy=                  0.151139
 Thermal correction to Gibbs Free Energy=         0.106062
 Sum of electronic and zero-point Energies=           -456.221384
 Sum of electronic and thermal Energies=              -456.212032
 Sum of electronic and thermal Enthalpies=            -456.211088
 Sum of electronic and thermal Free Energies=         -456.256165
 
                     E (Thermal)             CV                S
                      KCal/Mol        Cal/Mol-Kelvin    Cal/Mol-Kelvin
 Total                   94.249             35.490             94.873
 Electronic               0.000              0.000              0.000
 Translational            0.889              2.981             40.636
 Rotational               0.889              2.981             29.718
 Vibrational             92.471             29.529             24.518
 Vibration     1          0.596              1.976              4.659
 Vibration     2          0.601              1.960              3.786
 Vibration     3          0.623              1.886              2.495
 Vibration     4          0.645              1.816              1.987
 Vibration     5          0.651              1.798              1.894
 Vibration     6          0.664              1.758              1.711
 Vibration     7          0.727              1.576              1.168
 Vibration     8          0.772              1.454              0.936
 Vibration     9          0.789              1.412              0.869
 Vibration    10          0.809              1.360              0.795
 Vibration    11          0.893              1.165              0.569
 Vibration    12          0.932              1.083              0.493
 Vibration    13          0.975              0.999              0.424
                       Q            Log10(Q)             Ln(Q)
 Total Bot       0.163982D-48        -48.785205       -112.332086
 Total V=0       0.995624D+16         15.998096         36.836976
 Vib (Bot)       0.377014D-62        -62.423642       -143.735748
 Vib (Bot)    1  0.381536D+01          0.581536          1.339035
 Vib (Bot)    2  0.243859D+01          0.387139          0.891420
 Vib (Bot)    3  0.122554D+01          0.088327          0.203380
 Vib (Bot)    4  0.914245D+00         -0.038937         -0.089656
 Vib (Bot)    5  0.864234D+00         -0.063369         -0.145911
 Vib (Bot)    6  0.770967D+00         -0.112964         -0.260110
 Vib (Bot)    7  0.527822D+00         -0.277513         -0.638997
 Vib (Bot)    8  0.435279D+00         -0.361232         -0.831767
 Vib (Bot)    9  0.409053D+00         -0.388221         -0.893911
 Vib (Bot)   10  0.380676D+00         -0.419444         -0.965806
 Vib (Bot)   11  0.294722D+00         -0.530588         -1.221724
 Vib (Bot)   12  0.265640D+00         -0.575706         -1.325612
 Vib (Bot)   13  0.238823D+00         -0.621924         -1.432033
 Vib (V=0)       0.228907D+03          2.359658          5.433314
 Vib (V=0)    1  0.434798D+01          0.638288          1.469712
 Vib (V=0)    2  0.298932D+01          0.475573          1.095047
 Vib (V=0)    3  0.182361D+01          0.260932          0.600818
 Vib (V=0)    4  0.154204D+01          0.188095          0.433105
 Vib (V=0)    5  0.149845D+01          0.175642          0.404431
 Vib (V=0)    6  0.141891D+01          0.151954          0.349887
 Vib (V=0)    7  0.122705D+01          0.088861          0.204610
 Vib (V=0)    8  0.116292D+01          0.065551          0.150938
 Vib (V=0)    9  0.114601D+01          0.059187          0.136283
 Vib (V=0)   10  0.112842D+01          0.052472          0.120820
 Vib (V=0)   11  0.108040D+01          0.033583          0.077329
 Vib (V=0)   12  0.106618D+01          0.027832          0.064086
 Vib (V=0)   13  0.105411D+01          0.022885          0.052696
 Electronic      0.100000D+01          0.000000          0.000000
 Translational   0.623833D+08          7.795068         17.948808
 Rotational      0.697218D+06          5.843369         13.454853
 ***** Axes restored to original set *****
 -------------------------------------------------------------------
 Center     Atomic                   Forces (Hartrees/Bohr)
 Number     Number              X              Y              Z
 -------------------------------------------------------------------
      1        7           0.000047915    0.000047541    0.000022987
      2        6          -0.000034042   -0.000008702   -0.000005128
      3        6           0.000031003   -0.000059864    0.000001055
      4        7           0.000002453    0.000038458   -0.000002921
      5        6          -0.000027671   -0.000032671   -0.000014712
      6        6           0.000026459    0.000029922    0.000000567
      7        6          -0.000004591   -0.000001677    0.000000891
      8        6          -0.000013248    0.000001259    0.000000597
      9        6          -0.000013061    0.000014721    0.000000212
     10        1          -0.000001188    0.000000274    0.000000736
     11        1           0.000009615    0.000004466    0.000003833
     12        1          -0.000012148   -0.000017646   -0.000001508
     13        1           0.000001035   -0.000005036   -0.000000256
     14        1          -0.000003205   -0.000003659   -0.000000448
     15        1          -0.000000512    0.000007302    0.000000811
     16        8           0.000001912    0.000012800    0.000005001
     17        1           0.000000806   -0.000003329   -0.000007455
     18        1          -0.000011532   -0.000024159   -0.000004264
 -------------------------------------------------------------------
 Cartesian Forces:  Max     0.000059864 RMS     0.000018414

 GradGradGradGradGradGradGradGradGradGradGradGradGradGradGradGradGradGrad
 Berny optimization.
 Search for a local minimum.
 Step number   1 out of a maximum of    2
 All quantities printed in internal units (Hartrees-Bohrs-Radians)
 Second derivative matrix not updated -- analytic derivatives used.
 ITU=  0
     Eigenvalues ---    0.00055   0.00145   0.00418   0.00433   0.00678
     Eigenvalues ---    0.00803   0.00920   0.01736   0.02048   0.02234
     Eigenvalues ---    0.02642   0.03626   0.04013   0.04785   0.05280
     Eigenvalues ---    0.05536   0.05820   0.08177   0.08235   0.09234
     Eigenvalues ---    0.09407   0.12976   0.14434   0.16888   0.17117
     Eigenvalues ---    0.19682   0.21198   0.21479   0.24100   0.27041
     Eigenvalues ---    0.27523   0.33162   0.46499   0.51883   0.64571
     Eigenvalues ---    0.70271   0.73747   0.79387   0.88367   0.89318
     Eigenvalues ---    0.93629   0.94739   1.03045   1.14090   1.20000
     Eigenvalues ---    1.24499   1.25620   1.27600
 Angle between quadratic step and forces=  84.33 degrees.
 Linear search not attempted -- first point.
 TrRot= -0.000058  0.000028  0.000154 -0.000002  0.000020 -0.000002
 MatCor failed.
 Variable       Old X    -DE/DX   Delta X   Delta X   Delta X     New X
                                 (Linear)    (Quad)   (Total)
    X1        2.51701   0.00005   0.00000   0.00010   0.00005   2.51706
    Y1        1.52579   0.00005   0.00000   0.00028   0.00030   1.52609
    Z1       -0.07515   0.00002   0.00000   0.00284   0.00295  -0.07220
    X2        0.37509  -0.00003   0.00000   0.00008   0.00003   0.37511
    Y2       -0.01773  -0.00001   0.00000   0.00005   0.00008  -0.01765
    Z2       -0.04666  -0.00001   0.00000   0.00174   0.00189  -0.04478
    X3       -1.85048   0.00003   0.00000  -0.00001  -0.00006  -1.85054
    Y3        1.47845  -0.00006   0.00000  -0.00013  -0.00009   1.47836
    Z3        0.02153   0.00000   0.00000  -0.00032  -0.00013   0.02140
    X4       -0.97224   0.00000   0.00000  -0.00023  -0.00028  -0.97252
    Y4        3.95713   0.00004   0.00000   0.00005   0.00008   3.95722
    Z4        0.02965   0.00000   0.00000  -0.00071  -0.00053   0.02911
    X5        1.62912  -0.00003   0.00000  -0.00023  -0.00027   1.62885
    Y5        3.85235  -0.00003   0.00000   0.00016   0.00018   3.85253
    Z5       -0.03159  -0.00001   0.00000   0.00118   0.00130  -0.03028
    X6        0.21640   0.00003   0.00000   0.00004  -0.00003   0.21637
    Y6       -2.66855   0.00003   0.00000   0.00007   0.00010  -2.66845
    Z6       -0.07977   0.00000   0.00000   0.00230   0.00245  -0.07732
    X7       -2.19481   0.00000   0.00000  -0.00006  -0.00013  -2.19494
    Y7       -3.73776   0.00000   0.00000   0.00012   0.00016  -3.73760
    Z7       -0.03821   0.00000   0.00000   0.00100   0.00120  -0.03701
    X8       -4.39889  -0.00001   0.00000  -0.00019  -0.00026  -4.39914
    Y8       -2.22400   0.00000   0.00000   0.00006   0.00010  -2.22390
    Z8        0.03401   0.00000   0.00000  -0.00087  -0.00063   0.03338
    X9       -4.27532  -0.00001   0.00000  -0.00013  -0.00019  -4.27550
    Y9        0.41531   0.00001   0.00000   0.00008   0.00012   0.41544
    Z9        0.06426   0.00000   0.00000  -0.00164  -0.00140   0.06286
   X10       -2.03728   0.00000   0.00000  -0.00041  -0.00044  -2.03772
   Y10        5.55021   0.00000   0.00000  -0.00004  -0.00001   5.55020
   Z10        0.06397   0.00000   0.00000  -0.00188  -0.00168   0.06229
   X11        2.77025   0.00001   0.00000  -0.00026  -0.00030   2.76995
   Y11        5.55397   0.00000   0.00000   0.00022   0.00024   5.55421
   Z11       -0.04171   0.00000   0.00000   0.00153   0.00163  -0.04008
   X12        1.94369  -0.00001   0.00000  -0.00021  -0.00029   1.94340
   Y12       -3.78471  -0.00002   0.00000  -0.00038  -0.00036  -3.78507
   Z12       -0.14693   0.00000   0.00000   0.00335   0.00347  -0.14346
   X13       -2.39474   0.00000   0.00000   0.00005  -0.00003  -2.39477
   Y13       -5.78578  -0.00001   0.00000   0.00009   0.00013  -5.78565
   Z13       -0.06558   0.00000   0.00000   0.00136   0.00156  -0.06402
   X14       -6.24337   0.00000   0.00000  -0.00018  -0.00025  -6.24362
   Y14       -3.13657   0.00000   0.00000  -0.00002   0.00003  -3.13654
   Z14        0.06375   0.00000   0.00000  -0.00185  -0.00158   0.06217
   X15       -5.97896   0.00000   0.00000  -0.00003  -0.00008  -5.97905
   Y15        1.56827   0.00001   0.00000   0.00031   0.00036   1.56862
   Z15        0.11618   0.00000   0.00000  -0.00319  -0.00292   0.11326
   X16        6.48836   0.00000   0.00000  -0.00007  -0.00014   6.48822
   Y16       -2.23714   0.00001   0.00000  -0.00034  -0.00034  -2.23748
   Z16       -0.08780   0.00001   0.00000  -0.00307  -0.00304  -0.09084
   X17        6.73874   0.00000   0.00000   0.00386   0.00382   6.74256
   Y17       -2.36410   0.00000   0.00000  -0.00026  -0.00026  -2.36435
   Z17        1.73544  -0.00001   0.00000  -0.00362  -0.00360   1.73185
   X18        5.47474  -0.00001   0.00000  -0.00110  -0.00116   5.47358
   Y18       -0.67307  -0.00002   0.00000  -0.00084  -0.00083  -0.67390
   Z18       -0.24566   0.00000   0.00000  -0.00097  -0.00093  -0.24659
         Item               Value     Threshold  Converged?
 Maximum Force            0.000060     0.000450     YES
 RMS     Force            0.000018     0.000300     YES
 Maximum Displacement     0.003824     0.001800     NO 
 RMS     Displacement     0.001335     0.001200     NO 
 Predicted change in Energy=-6.644518D-08
 GradGradGradGradGradGradGradGradGradGradGradGradGradGradGradGradGradGrad

 1\1\GINC-NID01396\Freq\RTPSSTPSS\6-31G(d)\C7H8N2O1\PARKSJM\29-Oct-2015
 \0\\# tpsstpss/6-31G(d) freq integral=ultrafine scf=tight\\Bzm.H2O\\0,
 1\N,1.331946,0.807411,-0.039766\C,0.198487,-0.009381,-0.024694\C,-0.97
 9232,0.782362,0.011392\N,-0.514488,2.094025,0.015688\C,0.862093,2.0385
 76,-0.016715\C,0.114514,-1.412135,-0.042212\C,-1.161442,-1.977939,-0.0
 20219\C,-2.327791,-1.17689,0.017998\C,-2.262401,0.219775,0.034007\H,-1
 .078081,2.937044,0.033854\H,1.465953,2.939032,-0.02207\H,1.028556,-2.0
 02782,-0.07775\H,-1.267242,-3.061702,-0.034703\H,-3.303851,-1.659802,0
 .033734\H,-3.163931,0.829891,0.06148\O,3.43349,-1.183843,-0.046463\H,3
 .565987,-1.251026,0.918357\H,2.897108,-0.356175,-0.129998\\Version=AS6
 4L-G09RevD.01\State=1-A\HF=-456.3622272\RMSD=2.568e-09\RMSF=1.841e-05\
 ZeroPoint=0.1408433\Thermal=0.1501952\Dipole=-1.4725142,1.5890907,0.57
 52289\DipoleDeriv=-0.5856217,0.0149911,-0.0039384,0.2819987,-0.6104457
 ,0.0073485,0.0152239,-0.004766,-0.281464,0.1804282,0.2742722,0.0042522
 ,0.1164723,0.0617925,0.0012758,-0.0025003,-0.0057438,0.0514841,-0.1179
 479,0.0956484,0.0041004,0.2340835,0.4298934,-0.0004489,0.006514,0.0016
 304,0.0906343,-0.4945109,0.1809521,-0.0007219,-0.0694478,-0.4977551,0.
 0026253,0.0052832,-0.0101958,-0.2916735,0.6057945,-0.3443333,-0.017535
 ,-0.3566602,0.3366943,0.0008172,-0.018088,0.0081857,0.0407841,0.082777
 8,-0.0410882,-0.008142,0.0084659,0.0818415,-0.0018185,-0.0122252,0.004
 9769,-0.1029949,-0.1603415,-0.0700409,-0.0012904,0.018027,0.1394905,0.
 0063379,0.0011817,0.0082954,-0.1395446,0.1249996,0.0362777,-0.0064734,
 -0.0790104,-0.044351,0.002287,-0.0055247,0.000622,-0.1300907,0.1384771
 ,-0.0406357,-0.0072434,-0.0015602,-0.0008317,0.0019335,-0.0055565,0.00
 18882,-0.1461733,0.1260744,0.0012398,0.0034258,-0.005822,0.1969085,-0.
 0013252,0.0036727,-0.0000296,0.3369799,0.0554452,-0.0436444,0.0013044,
 -0.0457477,-0.0255191,0.0001017,0.0007951,-0.0012323,0.1358368,0.11920
 48,0.0468236,0.0078508,0.0633997,0.048701,0.0039581,0.0049693,0.005134
 9,0.114126,0.0526257,-0.0231296,0.0011609,-0.0247351,-0.1364695,-0.003
 5267,0.0009595,-0.0029484,0.1209326,-0.1048304,-0.079514,0.0036101,-0.
 0781003,0.0194336,0.0005136,0.0040733,0.0005932,0.1197337,-0.0691804,0
 .0667788,0.0048685,0.1005431,-0.0109496,-0.003949,0.0055306,-0.0028773
 ,0.1277116,-0.9989551,0.0995758,-0.0203711,0.0874854,-0.5743748,0.0649
 721,0.0214783,0.024771,-0.3005164,0.3637008,-0.0144774,0.0160112,-0.01
 34454,0.2655293,-0.0431735,-0.0135644,0.0019339,0.0202626,0.6818599,-0
 .1596962,0.0191315,-0.2359465,0.3204119,-0.0379291,-0.0122226,-0.03023
 83,0.2339717\Polar=109.9347971,9.883776,115.1635056,0.0194233,0.002621
 3,35.5641904\PG=C01 [X(C7H8N2O1)]\NImag=0\\0.45874807,-0.06733062,0.58
 838161,-0.00866980,0.00650579,0.09544575,-0.20869205,-0.07971510,0.002
 32560,0.56843766,-0.04114358,-0.11920509,0.00026220,0.00018098,0.78744
 316,0.00260951,0.00079030,-0.06512167,-0.00942300,0.00815393,0.1518364
 0,-0.05354195,-0.02322146,0.00130132,-0.20813698,0.05415593,0.00354555
 ,0.76803768,0.01182550,0.00594429,-0.00011628,0.09935584,-0.15488595,-
 0.00330914,0.08938276,0.61971938,0.00156025,0.00044177,0.01246316,0.00
 405622,-0.00205885,-0.07690371,-0.01318898,0.00357549,0.13463529,-0.05
 507994,0.06710586,0.00216321,-0.00382207,0.00131129,0.00033471,-0.1350
 0550,-0.04197604,0.00131045,0.69099363,0.02721613,-0.04115030,-0.00149
 775,0.04086966,-0.05603811,-0.00141936,-0.04088641,-0.25927194,-0.0015
 7007,-0.15975407,0.80349120,0.00191201,-0.00223871,0.02083341,0.000871
 74,-0.00067300,0.00780103,0.00150203,-0.00115182,-0.04531049,-0.014875
 57,0.01003750,0.06222786,-0.13643947,0.12123598,0.00321952,0.00752541,
 -0.01065904,-0.00015400,-0.05308829,-0.07057333,0.00073304,-0.29650024
 ,0.00188547,0.00550411,0.64027117,0.09135004,-0.37731933,-0.00528930,-
 0.04907941,-0.10105347,-0.00005463,-0.03393186,-0.01863256,0.00049026,
 -0.00518414,-0.11173499,-0.00034074,0.09446350,0.85688837,0.00261371,-
 0.00563592,-0.06634329,-0.00060170,-0.00103797,0.00766047,0.00097575,0
 .00108409,0.01083224,0.00592557,-0.00043445,-0.04623840,-0.01076723,0.
 00489805,0.12518375,-0.00001441,-0.04168036,-0.00057505,-0.11177799,0.
 02877164,0.00175132,0.03309706,0.02325879,-0.00043307,-0.00323356,0.00
 005850,0.00007669,-0.01041444,0.00385231,0.00041447,0.72634414,-0.0199
 2849,-0.03368112,0.00002665,-0.00322884,-0.32212889,-0.00344790,0.0489
 2771,-0.02419746,-0.00153015,0.00592735,-0.00444610,-0.00023716,-0.006
 88102,0.01599740,0.00032268,-0.03603044,0.66364597,-0.00028762,0.00064
 318,-0.00308032,0.00137557,-0.00465737,-0.05585797,-0.00003164,-0.0010
 0181,0.00382080,0.00022277,-0.00016534,0.00201726,0.00030209,0.0000852
 5,0.00427885,-0.01594869,0.00922667,0.12845272,0.01161179,0.01743708,0
 .00012151,0.00632947,-0.07017136,-0.00098501,-0.05042433,-0.00209850,0
 .00103397,-0.00291026,0.00798852,0.00015567,0.00304879,-0.01303755,-0.
 00024840,-0.31215862,-0.05573827,0.00539946,0.64756591,0.00207128,-0.0
 0245679,-0.00019097,-0.03700375,-0.01943495,0.00057610,0.00920274,0.00
 234091,-0.00012970,-0.00415390,-0.00444358,0.00003973,0.00315937,-0.00
 207378,-0.00009706,-0.10946999,-0.15891307,0.00094375,0.02580885,0.709
 02552,-0.00008127,-0.00055393,0.00583147,-0.00058765,0.00127183,0.0041
 3614,0.00112672,0.00013304,-0.00487024,0.00001899,-0.00018856,-0.00079
 637,-0.00005088,0.00027866,0.00065298,0.00442972,-0.00024118,-0.054518
 80,-0.01193281,0.00821728,0.12205297,-0.00397681,-0.00791153,-0.000013
 43,-0.00553635,0.02433974,0.00030181,0.01718172,-0.03502624,-0.0007530
 7,-0.00344205,-0.00178445,0.00017349,-0.00436138,0.00484249,0.00018771
 ,-0.05381522,-0.01217643,0.00126774,-0.24124957,0.11445261,0.00594557,
 0.68390729,0.00728064,0.00665307,-0.00003386,0.01289116,-0.04200345,-0
 .00081747,-0.06976927,-0.02999917,0.00118188,0.00130831,0.01323618,0.0
 0007906,-0.00172174,-0.00881685,-0.00012139,0.02769693,0.05123953,0.00
 014646,0.05442976,-0.17803834,-0.00316278,0.03681900,0.66964770,0.0001
 7077,0.00031621,-0.00153817,0.00014474,-0.00107404,-0.00497711,-0.0011
 7450,0.00040893,0.00334516,0.00018332,0.00014004,0.00501585,0.00012689
 ,-0.00025722,0.00111973,0.00173165,0.00095658,0.00564965,0.00498054,-0
 .00436353,-0.05644255,-0.01247048,0.00635459,0.12118749,-0.00685826,-0
 .00205514,0.00018289,-0.03794733,0.02218283,0.00131200,-0.31064309,-0.
 08546924,0.00501074,0.00186059,-0.01679068,-0.00034852,0.00368975,0.00
 855714,0.00008489,-0.01480117,-0.02054012,-0.00011663,0.03079526,0.019
 98113,-0.00023756,-0.11806252,0.01866716,0.00172760,0.70059366,0.00261
 817,-0.00332717,-0.00016393,-0.00847524,0.04939540,0.00076817,-0.04226
 076,-0.13246573,-0.00002317,-0.03894043,-0.02098620,0.00063277,0.00484
 007,-0.00289086,-0.00012243,-0.02646047,-0.03292904,0.00023779,0.05968
 589,-0.03474410,-0.00186457,-0.03632830,-0.34313807,-0.00286947,-0.043
 13572,0.67206166,0.00024127,-0.00004454,0.00323455,0.00082968,0.000078
 93,0.00412126,0.00550985,0.00092190,-0.04816314,-0.00052313,0.00018476
 ,-0.00245204,-0.00000833,-0.00023160,0.00165026,-0.00007644,0.00007785
 ,-0.00317318,0.00027131,-0.00099191,0.00620325,0.00101764,-0.00399433,
 -0.05079373,-0.01388346,0.00777646,0.11177082,-0.00757122,0.00170669,0
 .00037619,-0.00303122,-0.00527026,0.00005937,0.01525405,-0.00921415,-0
 .00051069,-0.18509608,0.16932184,0.00514852,-0.00043253,0.02864047,-0.
 00001612,0.00108764,0.00000933,-0.00000840,0.00015717,-0.00006010,-0.0
 0000702,-0.00032721,0.00021497,0.00000589,0.00086101,0.00013470,-0.000
 03650,0.17994146,-0.00376445,0.00246852,0.00005395,-0.00250112,-0.0064
 3785,-0.00003211,0.02031330,-0.01036214,-0.00041457,0.16984830,-0.3274
 9910,-0.00611650,-0.00097923,0.00668195,0.00014895,0.00227557,0.000230
 97,-0.00007245,-0.00052442,0.00031308,0.00002010,0.00034748,-0.0006351
 4,-0.00002291,0.00020026,0.00199160,0.00002177,-0.18442339,0.33406359,
 0.00026470,-0.00001826,0.00636422,0.00005289,-0.00002146,0.00246234,-0
 .00023182,0.00005203,-0.00667763,0.00499751,-0.00584546,-0.00080067,-0
 .00013444,-0.00057561,-0.00957186,0.00003061,-0.00000791,0.00114541,-0
 .00002900,0.00001142,-0.00034320,0.00001303,-0.00002400,-0.00001264,-0
 .00001994,0.00004497,-0.00093406,-0.00498216,0.00638328,0.00894828,0.0
 1358623,0.01093980,-0.00027243,-0.00053554,0.00362619,0.00022950,-0.00
 479455,0.00359872,0.00020951,-0.01351919,-0.02762824,0.00000884,-0.151
 25187,-0.13356524,0.00153310,0.00093573,-0.00024964,0.00001808,0.00025
 726,0.00027526,-0.00001215,-0.00070584,0.00038497,0.00001932,0.0004897
 5,-0.00181565,0.00001557,-0.00015840,0.00008528,-0.00002020,0.15545961
 ,-0.01509367,-0.02036777,0.00017024,0.00308485,-0.00407083,-0.00017125
 ,0.00221472,-0.00017626,-0.00007593,0.00514654,0.00846975,-0.00002617,
 -0.13721455,-0.25469329,0.00100974,-0.00162090,0.00006398,0.00002052,0
 .00031873,-0.00058458,-0.00001283,0.00015953,0.00009049,-0.00000129,-0
 .00019455,0.00058767,-0.00000553,-0.00084833,-0.00010539,0.00002490,0.
 14451311,0.27076636,-0.00051896,-0.00050607,-0.00407085,0.00022020,-0.
 00020028,0.00765989,0.00016744,-0.00008758,0.00244319,0.00031847,0.000
 69507,-0.00118267,0.00152755,0.00102539,-0.02705443,-0.00000068,-0.000
 02546,0.00143738,-0.00001116,-0.00000145,-0.00044792,0.00000953,-0.000
 00616,-0.00007847,0.00003686,0.00001969,0.00208339,-0.00001745,0.00000
 214,-0.00101333,-0.00168761,-0.00096410,0.02082325,-0.00019955,0.00083
 501,-0.00011153,0.00716297,-0.00206401,-0.00001552,0.00036509,-0.00126
 707,0.00016254,0.00012074,-0.00038827,-0.00001279,0.00009348,-0.000133
 79,-0.00001812,-0.25170779,0.12946768,0.00780624,-0.01518859,0.0157808
 0,0.00078822,-0.00256602,-0.00359556,0.00023471,0.00021592,-0.00057749
 ,-0.00002538,-0.00007579,-0.00025480,0.00001032,-0.00000615,0.00001284
 ,0.00000849,0.26099929,-0.00065213,0.00297658,0.00009786,0.02892129,-0
 .01313030,-0.00108133,-0.00217449,-0.00418121,-0.00010957,0.00123013,-
 0.00103317,-0.00002770,0.00065166,-0.00037297,-0.00000887,0.12725228,-
 0.14365128,-0.00508038,-0.01261163,0.01276516,0.00046840,-0.00310130,-
 0.00097227,-0.00009441,-0.00076874,-0.00084332,0.00000975,-0.00040584,
 -0.00048820,0.00000249,-0.00004352,-0.00001495,-0.00000122,-0.13877199
 ,0.14871825,-0.00010703,0.00008114,-0.00330403,0.00022566,-0.00001788,
 0.00446521,0.00010896,-0.00003337,0.00604958,-0.00001618,0.00002824,-0
 .00019447,-0.00002229,-0.00002417,-0.00040521,0.00858002,-0.00556224,-
 0.03803671,0.00015062,-0.00014829,0.00242388,0.00015265,-0.00009298,0.
 00759204,-0.00001437,-0.00001166,-0.00033493,-0.00000095,0.00000433,0.
 00023693,0.00000108,0.00000145,0.00021126,-0.00860100,0.00564336,0.028
 28857,0.00056254,-0.00161653,0.00000183,-0.00558959,-0.00080024,0.0002
 8169,-0.00131673,-0.00027343,0.00002538,0.00045416,0.00000401,-0.00001
 552,-0.00069423,-0.00019065,-0.00000508,0.00131728,-0.03065095,-0.0004
 3816,-0.06018866,-0.02629609,0.00021505,0.00592994,0.02758545,0.000311
 11,-0.00440077,0.00219713,0.00024751,-0.00003935,-0.00004643,0.0000007
 6,0.00012215,-0.00017518,-0.00001143,0.00113116,0.00065605,-0.00015513
 ,0.06144248,0.00020193,-0.00065330,-0.00003098,-0.00235212,0.00139008,
 -0.00004689,0.00025366,0.00079304,0.00000651,0.00012166,-0.00002318,0.
 00000061,-0.00045164,-0.00006992,0.00001908,0.00077914,-0.00912829,-0.
 00020896,-0.02611713,-0.32993857,-0.00400524,-0.00446126,-0.01380862,-
 0.00013136,0.00342362,0.00015761,-0.00016625,0.00000996,0.00002536,-0.
 00000006,0.00003555,-0.00007117,0.00000343,-0.00011684,0.00081095,0.00
 007988,0.02853051,0.35050060,0.00001096,0.00001033,0.00130975,0.000269
 29,-0.00002678,0.00734730,0.00005509,0.00003151,-0.00026212,-0.0000160
 2,-0.00000929,-0.00022429,0.00000070,0.00001566,-0.00068973,0.00002329
 ,0.00050453,0.00178492,0.00028256,-0.00410835,-0.03258196,-0.00021939,
 -0.00079674,0.00094800,0.00025992,-0.00014164,0.00531989,0.00000072,0.
 00000249,0.00000368,-0.00001066,0.00000670,-0.00031569,-0.00017422,0.0
 0008578,-0.00439943,-0.00038180,0.00442032,0.02444635,-0.00011856,-0.0
 0016734,-0.00000377,0.00046965,0.00109440,-0.00001075,0.00144256,0.000
 39599,0.00011375,0.00012426,-0.00001862,0.00003163,0.00005862,-0.00006
 224,-0.00000910,-0.00261042,0.00438514,0.00026528,-0.01852862,-0.01424
 291,0.00024914,-0.27833836,-0.10939415,0.00413604,0.00186099,0.0017731
 3,0.00001024,-0.00002452,0.00000768,0.00000391,0.00000547,-0.00002037,
 -0.00001119,-0.00084569,-0.00084235,0.00000294,0.00100921,0.00032346,-
 0.00009841,0.29478075,-0.00016752,0.00059620,0.00001250,0.00044786,-0.
 00105429,-0.00001590,0.00142021,-0.00584160,-0.00018657,-0.00226133,0.
 00004067,0.00003388,0.00049100,-0.00090843,-0.00001650,0.00313098,-0.0
 0206702,-0.00019776,0.01749815,0.01149766,-0.00025524,-0.10874966,-0.1
 1186103,0.00141983,-0.02962195,-0.01007678,0.00051351,-0.00005650,0.00
 003843,-0.00000143,-0.00018589,0.00005941,0.00001055,0.00082458,0.0005
 5209,-0.00000613,-0.00048491,0.00092071,0.00007206,0.11723513,0.116886
 87,-0.00000264,0.00001802,-0.00016923,-0.00001926,-0.00003701,-0.00070
 211,0.00011744,-0.00016932,0.00644800,0.00000497,-0.00001188,0.0016053
 7,-0.00000364,-0.00000935,-0.00029601,0.00024813,-0.00020324,0.0057258
 2,0.00068543,0.00045432,0.00143961,0.00411600,0.00139898,-0.03210878,-
 0.00037958,-0.00016297,0.00150797,0.00000310,-0.00000017,0.00013730,-0
 .00001361,0.00000527,-0.00048341,0.00003462,0.00001724,0.00032684,-0.0
 0010481,0.00006318,-0.00331383,-0.00458203,-0.00143825,0.02406110,-0.0
 0216440,-0.00009605,0.00005848,-0.00086061,-0.00431282,0.00009406,-0.0
 1892339,0.01886161,0.00068647,0.00294939,0.00057385,-0.00012015,-0.001
 38630,0.00073535,0.00002764,-0.00035523,-0.00094878,-0.00001197,0.0015
 6322,-0.00098363,0.00010843,0.00548472,-0.00260114,-0.00012829,-0.2474
 7297,0.12667947,0.00639672,-0.00079882,-0.00076767,0.00000807,0.000019
 86,-0.00007363,0.00000219,0.00001145,0.00018444,-0.00003273,0.00017418
 ,-0.00019910,0.00000535,0.00085299,0.00035554,-0.00010714,0.26083275,-
 0.00139899,0.00010270,0.00002979,-0.00205670,-0.00120848,-0.00003269,-
 0.01266338,0.01098443,0.00038991,0.00145708,0.00159574,0.00001467,-0.0
 0009404,0.00070089,0.00001589,-0.00077566,-0.00053343,0.00001202,-0.00
 274615,-0.00518637,-0.00008989,0.02855626,-0.01150949,-0.00078591,0.12
 552219,-0.14297664,-0.00414695,0.00022933,-0.00021269,-0.00000490,0.00
 003762,-0.00001860,-0.00000288,0.00009564,0.00012814,0.00001944,0.0015
 6667,-0.00087622,-0.00005732,-0.00045401,0.00124448,0.00007597,-0.1373
 1871,0.14778681,0.00003192,0.00000119,0.00026755,0.00016241,-0.0000158
 9,0.00592607,0.00027443,-0.00032022,0.00193796,-0.00010310,0.00002494,
 -0.00259227,0.00001968,-0.00000183,-0.00043463,0.00000706,0.00002877,-
 0.00038725,0.00009645,-0.00013206,0.00715289,0.00025456,-0.00011915,0.
 00117515,0.00636104,-0.00412882,-0.03006667,0.00001954,0.00002044,-0.0
 0013617,0.00000393,-0.00000024,0.00015145,-0.00004143,0.00002447,-0.00
 146541,0.00002272,-0.00001288,0.00058827,-0.00011564,0.00006036,-0.004
 16640,-0.00699148,0.00457182,0.02202607,-0.00158759,0.00981797,-0.0002
 8290,0.00107187,0.00007289,0.00004313,0.00006070,0.00028051,0.00002753
 ,-0.00217460,0.00177776,0.00013913,-0.00121946,-0.00305897,-0.00013347
 ,-0.00165384,-0.00236654,-0.00011422,-0.00073054,0.00143403,-0.0000639
 9,-0.00036744,-0.00028182,0.00004332,-0.00025363,0.00007453,0.00000582
 ,-0.00032557,-0.00019426,0.00004961,-0.00011682,0.00040366,-0.00001524
 ,-0.00024330,0.00105977,0.00043525,-0.00012339,-0.00021510,-0.00000848
 ,-0.00032497,0.00005309,0.00001614,-0.00015558,0.00007997,-0.00000306,
 0.15920303,0.00649834,-0.00754472,0.00076089,-0.00140269,-0.00334854,0
 .00000755,0.00124395,-0.00058834,-0.00005499,0.00270219,-0.00081846,-0
 .00013602,0.00067910,0.00459203,0.00007623,0.00019743,-0.00109459,-0.0
 0041650,-0.00031920,0.00094879,-0.00001562,0.00003944,0.00005426,0.000
 02055,-0.00024124,-0.00014865,-0.00000160,0.00042427,0.00019934,-0.000
 05178,-0.00008681,-0.00014812,0.00002064,0.00137989,0.00012464,0.00091
 152,0.00015118,0.00010481,-0.00000568,-0.00006935,0.00012019,0.0000084
 5,0.00014867,0.00008092,-0.00000405,-0.21757186,0.34181545,-0.00064635
 ,0.00006841,0.00383931,0.00001826,0.00015884,-0.00038948,-0.00005407,0
 .00002652,-0.00017392,-0.00005562,-0.00003561,-0.00017222,0.00003462,-
 0.00015194,0.00040276,-0.00021088,0.00019476,0.00097958,0.00005935,-0.
 00009633,0.00023128,0.00001202,-0.00000165,-0.00005951,0.00003194,0.00
 000084,-0.00001304,-0.00001313,-0.00000303,-0.00025932,0.00001803,-0.0
 0000450,0.00006904,0.00012029,0.00020360,-0.00155898,0.00001086,0.0000
 0293,0.00000404,0.00001584,-0.00000766,-0.00002982,0.00000193,-0.00000
 810,0.00000387,0.07508130,-0.04380796,0.51383365,-0.00040834,-0.000126
 75,0.00089210,-0.00014004,0.00015314,-0.00020496,-0.00012670,0.0000214
 6,-0.00005266,0.00031389,-0.00025057,-0.00009703,-0.00019102,0.0003900
 6,0.00018452,-0.00038742,0.00026349,0.00037151,0.00002884,-0.00023447,
 0.00013613,0.00003294,-0.00000153,-0.00003934,0.00007977,0.00000131,0.
 00000337,-0.00000375,0.00003747,-0.00007783,0.00002734,-0.00005969,0.0
 0003495,-0.00009613,-0.00008082,-0.00097253,0.00001550,0.00003289,-0.0
 0000096,0.00006621,-0.00000619,-0.00001515,0.00003299,-0.00002699,0.00
 000532,-0.02168577,0.02512718,-0.04167223,0.02549565,-0.00006074,-0.00
 015113,-0.00157753,0.00043669,0.00032917,0.00000566,-0.00011894,0.0001
 0625,0.00007316,-0.00034011,-0.00003417,0.00008310,0.00033465,-0.00047
 923,-0.00008345,-0.00031406,0.00003250,0.00032875,0.00001579,-0.000025
 36,0.00003625,-0.00005304,-0.00004146,-0.00002005,0.00006587,-0.000007
 18,0.00000305,-0.00001350,-0.00002503,0.00007484,0.00003001,-0.0000418
 2,-0.00001862,0.00011568,0.00023577,-0.00079885,-0.00004030,-0.0000393
 2,-0.00000196,-0.00000597,-0.00001512,-0.00000513,-0.00001904,-0.00000
 912,0.00000414,0.02041607,-0.03585727,-0.00247585,-0.02737044,0.040010
 84,0.00038896,-0.00019969,0.00046152,-0.00005019,-0.00004573,-0.000035
 94,0.00000111,-0.00001969,-0.00002412,0.00015335,-0.00007681,-0.000030
 79,-0.00006223,0.00014505,0.00003779,0.00001674,0.00008686,0.00012585,
 0.00001579,-0.00007100,0.00000853,0.00002707,0.00002088,-0.00000970,0.
 00001326,-0.00000507,-0.00000180,0.00002864,-0.00000488,-0.00001400,-0
 .00000973,-0.00001203,0.00001149,-0.00045493,-0.00024774,-0.00018249,-
 0.00000537,0.00001280,0.00000247,0.00001784,-0.00000153,-0.00000164,0.
 00001052,-0.00000309,0.00000203,-0.07473374,0.05079330,-0.46237074,0.0
 7053024,-0.04186357,0.47272610,-0.00785608,-0.00515751,-0.00071374,-0.
 00492726,-0.00146773,0.00023057,0.00056263,-0.00108318,0.00000861,0.00
 396682,-0.00219443,-0.00005426,0.00129200,0.00541250,-0.00014813,0.000
 14827,-0.00024119,-0.00007139,0.00002149,0.00027879,-0.00004464,0.0002
 1215,0.00008686,-0.00000330,-0.00000696,-0.00001036,0.00000426,0.00058
 314,0.00034040,0.00006397,0.00018495,-0.00055311,-0.00005193,0.0008289
 2,-0.00050278,0.00026503,0.00019414,0.00020082,0.00000205,0.00012044,0
 .00007742,0.00000202,0.00019574,-0.00001013,-0.00000435,-0.12937310,0.
 18109950,-0.03275215,-0.00305396,0.00692141,0.00411266,0.13690666,0.00
 047816,-0.00126623,0.00098072,-0.00037336,0.00544237,0.00012694,-0.002
 08840,0.00071406,-0.00000542,-0.00354869,0.00064576,0.00002651,0.00083
 377,-0.00581497,-0.00001668,-0.00092167,0.00155994,0.00015619,0.000181
 45,-0.00105163,-0.00003572,0.00003567,-0.00009733,0.00000346,0.0002171
 7,0.00033982,-0.00000527,-0.00039950,-0.00024729,-0.00004306,0.0000484
 8,0.00025512,0.00003689,-0.00134230,-0.00162391,-0.00007379,-0.0001162
 9,-0.00009457,-0.00000162,0.00006239,-0.00013244,-0.00000411,-0.000218
 35,-0.00009305,-0.00000098,0.18821831,-0.29849173,0.04593674,0.0021304
 5,-0.00398831,-0.00850806,-0.18319728,0.30394441,0.00050961,0.00032078
 ,-0.00642311,0.00012955,-0.00005947,0.00057188,-0.00000469,-0.00002427
 ,0.00040998,-0.00004369,0.00014401,0.00049392,-0.00026516,-0.00000192,
 -0.00078527,-0.00006489,-0.00017012,-0.00036399,-0.00004629,0.00008805
 ,-0.00013194,-0.00002245,-0.00001134,-0.00001241,-0.00002107,0.0000130
 3,0.00004122,-0.00004954,0.00000916,0.00046473,-0.00003056,0.00003506,
 -0.00024355,0.00028947,0.00009826,0.00028736,0.00000040,-0.00000611,0.
 00003239,-0.00001573,0.00000428,0.00001923,-0.00000811,0.00000220,0.00
 001749,-0.00048612,-0.00810492,-0.05433649,-0.02902543,0.04623607,-0.0
 1070454,0.02915470,-0.03857274,0.07066311\\-0.00004792,-0.00004754,-0.
 00002299,0.00003404,0.00000870,0.00000513,-0.00003100,0.00005986,-0.00
 000106,-0.00000245,-0.00003846,0.00000292,0.00002767,0.00003267,0.0000
 1471,-0.00002646,-0.00002992,-0.00000057,0.00000459,0.00000168,-0.0000
 0089,0.00001325,-0.00000126,-0.00000060,0.00001306,-0.00001472,-0.0000
 0021,0.00000119,-0.00000027,-0.00000074,-0.00000962,-0.00000447,-0.000
 00383,0.00001215,0.00001765,0.00000151,-0.00000103,0.00000504,0.000000
 26,0.00000320,0.00000366,0.00000045,0.00000051,-0.00000730,-0.00000081
 ,-0.00000191,-0.00001280,-0.00000500,-0.00000081,0.00000333,0.00000746
 ,0.00001153,0.00002416,0.00000426\\\@


 BE CAREFUL NOT TO BECOME TOO GOOD OF A SONGBIRD OR 
 THEY'LL THROW YOU INTO A CAGE.

                                    -- SNOOPY TO WOODSTOCK
 Job cpu time:       0 days  0 hours  1 minutes  4.5 seconds.
 File lengths (MBytes):  RWF=     64 Int=      0 D2E=      0 Chk=      3 Scr=      1
 Normal termination of Gaussian 09 at Thu Oct 29 07:16:40 2015.
