 Entering GApplication 60295179 resources: utime ~4562s, stime ~217s, Rss ~1082216, inblocks ~5804246, outblocks ~1379001
obal/homes/p/parksjm/tpss/BzmH.H2O/BzmH.H2O.tpss.631gs.opt.log
 Initial command:
 /usr/common/usg/g09/d1/g09/l1.exe "/scratch/scratchdirs/parksjm/g09/13504186.hopque01/Gau-8736.inp" -scrdir="/scratch/scratchdirs/parksjm/g09/13504186.hopque01/"
 Entering Link 1 = /usr/common/usg/g09/d1/g09/l1.exe PID=      8737.
  
 Copyright (c) 1988,1990,1992,1993,1995,1998,2003,2009,2013,
            Gaussian, Inc.  All Rights Reserved.
  
 This is part of the Gaussian(R) 09 program.  It is based on
 the Gaussian(R) 03 system (copyright 2003, Gaussian, Inc.),
 the Gaussian(R) 98 system (copyright 1998, Gaussian, Inc.),
 the Gaussian(R) 94 system (copyright 1995, Gaussian, Inc.),
 the Gaussian 92(TM) system (copyright 1992, Gaussian, Inc.),
 the Gaussian 90(TM) system (copyright 1990, Gaussian, Inc.),
 the Gaussian 88(TM) system (copyright 1988, Gaussian, Inc.),
 the Gaussian 86(TM) system (copyright 1986, Carnegie Mellon
 University), and the Gaussian 82(TM) system (copyright 1983,
 Carnegie Mellon University). Gaussian is a federally registered
 trademark of Gaussian, Inc.
  
 This software contains proprietary and confidential information,
 including trade secrets, belonging to Gaussian, Inc.
  
 This software is provided under written license and may be
 used, copied, transmitted, or stored only in accord with that
 written license.
  
 The following legend is applicable only to US Government
 contracts under FAR:
  
                    RESTRICTED RIGHTS LEGEND
  
 Use, reproduction and disclosure by the US Government is
 subject to restrictions as set forth in subparagraphs (a)
 and (c) of the Commercial Computer Software - Restricted
 Rights clause in FAR 52.227-19.
  
 Gaussian, Inc.
 340 Quinnipiac St., Bldg. 40, Wallingford CT 06492
  
  
 ---------------------------------------------------------------
 Warning -- This program may not be used in any manner that
 competes with the business of Gaussian, Inc. or will provide
 assistance to any competitor of Gaussian, Inc.  The licensee
 of this program is prohibited from giving any competitor of
 Gaussian, Inc. access to this program.  By using this program,
 the user acknowledges that Gaussian, Inc. is engaged in the
 business of creating and licensing software in the field of
 computational chemistry and represents and warrants to the
 licensee that it is not a competitor of Gaussian, Inc. and that
 it will not use this program in any manner prohibited above.
 ---------------------------------------------------------------
  

 Cite this work as:
 Gaussian 09, Revision D.01,
 M. J. Frisch, G. W. Trucks, H. B. Schlegel, G. E. Scuseria, 
 M. A. Robb, J. R. Cheeseman, G. Scalmani, V. Barone, B. Mennucci, 
 G. A. Petersson, H. Nakatsuji, M. Caricato, X. Li, H. P. Hratchian, 
 A. F. Izmaylov, J. Bloino, G. Zheng, J. L. Sonnenberg, M. Hada, 
 M. Ehara, K. Toyota, R. Fukuda, J. Hasegawa, M. Ishida, T. Nakajima, 
 Y. Honda, O. Kitao, H. Nakai, T. Vreven, J. A. Montgomery, Jr., 
 J. E. Peralta, F. Ogliaro, M. Bearpark, J. J. Heyd, E. Brothers, 
 K. N. Kudin, V. N. Staroverov, T. Keith, R. Kobayashi, J. Normand, 
 K. Raghavachari, A. Rendell, J. C. Burant, S. S. Iyengar, J. Tomasi, 
 M. Cossi, N. Rega, J. M. Millam, M. Klene, J. E. Knox, J. B. Cross, 
 V. Bakken, C. Adamo, J. Jaramillo, R. Gomperts, R. E. Stratmann, 
 O. Yazyev, A. J. Austin, R. Cammi, C. Pomelli, J. W. Ochterski, 
 R. L. Martin, K. Morokuma, V. G. Zakrzewski, G. A. Voth, 
 P. Salvador, J. J. Dannenberg, S. Dapprich, A. D. Daniels, 
 O. Farkas, J. B. Foresman, J. V. Ortiz, J. Cioslowski, 
 and D. J. Fox, Gaussian, Inc., Wallingford CT, 2013.
 
 ******************************************
 Gaussian 09:  AS64L-G09RevD.01 24-Apr-2013
                28-Oct-2015 
 ******************************************
 %nproc=24
 Will use up to   24 processors via shared memory.
 %chk=BzmH.H2O.chk
 %mem=7000mb
 ----------------------------------------------------
 # tpsstpss/6-31G(d) opt integral=ultrafine scf=tight
 ----------------------------------------------------
 1/14=-1,18=20,19=15,26=4,38=1/1,3;
 2/9=110,12=2,17=6,18=5,40=1/2;
 3/5=1,6=6,7=1,11=2,16=1,25=1,30=1,71=1,74=2523,75=-5/1,2,3;
 4//1;
 5/5=2,32=2,38=5/2;
 6/7=2,8=2,9=2,10=2,28=1/1;
 7//1,2,3,16;
 1/14=-1,18=20,19=15,26=4/3(2);
 2/9=110/2;
 99//99;
 2/9=110/2;
 3/5=1,6=6,7=1,11=2,16=1,25=1,30=1,71=1,74=2523,75=-5/1,2,3;
 4/5=5,16=3,69=1/1;
 5/5=2,32=2,38=5/2;
 7//1,2,3,16;
 1/14=-1,18=20,19=15,26=4/3(-5);
 2/9=110/2;
 6/7=2,8=2,9=2,10=2,19=2,28=1/1;
 99/9=1/99;
 --------
 BzmH.H2O
 --------
 Symbolic Z-matrix:
 Charge =  1 Multiplicity = 1
 N                    -0.10925   0.00048   1.00511 
 C                    -0.47343   0.77523  -0.10163 
 C                    -1.21508  -0.07169  -0.96437 
 N                    -1.25591  -1.31686  -0.32431 
 C                    -0.5881   -1.24133   0.8471 
 C                    -0.22443   2.12001  -0.41972 
 C                    -0.74844   2.57505  -1.63365 
 C                    -1.49035   1.72606  -2.49598 
 C                    -1.74078   0.38568  -2.18261 
 H                     0.45498   0.35351   1.82762 
 H                    -1.71433  -2.15929  -0.67439 
 H                    -0.46192  -2.0638    1.54835 
 H                     0.34752   2.76888   0.24891 
 H                    -0.58269   3.61556  -1.92841 
 H                    -1.87873   2.1318   -3.43491 
 H                    -2.31323  -0.26407  -2.85057 
 O                     1.34742   1.20589   2.95512 
 H                     2.29709   1.02573   3.10886 
 H                     0.98267   1.44814   3.83046 
 
 Add virtual bond connecting atoms O17        and H10        Dist= 3.16D+00.

 GradGradGradGradGradGradGradGradGradGradGradGradGradGradGradGradGradGrad
 Berny optimization.
 Initialization pass.
                           ----------------------------
                           !    Initial Parameters    !
                           ! (Angstroms and Degrees)  !
 --------------------------                            --------------------------
 ! Name  Definition              Value          Derivative Info.                !
 --------------------------------------------------------------------------------
 ! R1    R(1,2)                  1.3992         estimate D2E/DX2                !
 ! R2    R(1,5)                  1.3403         estimate D2E/DX2                !
 ! R3    R(1,10)                 1.0581         estimate D2E/DX2                !
 ! R4    R(2,3)                  1.4183         estimate D2E/DX2                !
 ! R5    R(2,6)                  1.4041         estimate D2E/DX2                !
 ! R6    R(3,4)                  1.4006         estimate D2E/DX2                !
 ! R7    R(3,9)                  1.4034         estimate D2E/DX2                !
 ! R8    R(4,5)                  1.3505         estimate D2E/DX2                !
 ! R9    R(4,11)                 1.021          estimate D2E/DX2                !
 ! R10   R(5,12)                 1.0882         estimate D2E/DX2                !
 ! R11   R(6,7)                  1.3983         estimate D2E/DX2                !
 ! R12   R(6,13)                 1.0933         estimate D2E/DX2                !
 ! R13   R(7,8)                  1.4194         estimate D2E/DX2                !
 ! R14   R(7,14)                 1.0941         estimate D2E/DX2                !
 ! R15   R(8,9)                  1.3991         estimate D2E/DX2                !
 ! R16   R(8,15)                 1.0941         estimate D2E/DX2                !
 ! R17   R(9,16)                 1.0936         estimate D2E/DX2                !
 ! R18   R(10,17)                1.6716         estimate D2E/DX2                !
 ! R19   R(17,18)                0.9788         estimate D2E/DX2                !
 ! R20   R(17,19)                0.9787         estimate D2E/DX2                !
 ! A1    A(2,1,5)              109.0736         estimate D2E/DX2                !
 ! A2    A(2,1,10)             124.6762         estimate D2E/DX2                !
 ! A3    A(5,1,10)             126.2501         estimate D2E/DX2                !
 ! A4    A(1,2,3)              106.6548         estimate D2E/DX2                !
 ! A5    A(1,2,6)              131.5544         estimate D2E/DX2                !
 ! A6    A(3,2,6)              121.7907         estimate D2E/DX2                !
 ! A7    A(2,3,4)              105.5525         estimate D2E/DX2                !
 ! A8    A(2,3,9)              121.957          estimate D2E/DX2                !
 ! A9    A(4,3,9)              132.4905         estimate D2E/DX2                !
 ! A10   A(3,4,5)              109.4046         estimate D2E/DX2                !
 ! A11   A(3,4,11)             126.1519         estimate D2E/DX2                !
 ! A12   A(5,4,11)             124.4435         estimate D2E/DX2                !
 ! A13   A(1,5,4)              109.3145         estimate D2E/DX2                !
 ! A14   A(1,5,12)             125.654          estimate D2E/DX2                !
 ! A15   A(4,5,12)             125.0315         estimate D2E/DX2                !
 ! A16   A(2,6,7)              116.2233         estimate D2E/DX2                !
 ! A17   A(2,6,13)             121.5108         estimate D2E/DX2                !
 ! A18   A(7,6,13)             122.2659         estimate D2E/DX2                !
 ! A19   A(6,7,8)              121.9132         estimate D2E/DX2                !
 ! A20   A(6,7,14)             119.1176         estimate D2E/DX2                !
 ! A21   A(8,7,14)             118.9691         estimate D2E/DX2                !
 ! A22   A(7,8,9)              122.0388         estimate D2E/DX2                !
 ! A23   A(7,8,15)             119.0176         estimate D2E/DX2                !
 ! A24   A(9,8,15)             118.9435         estimate D2E/DX2                !
 ! A25   A(3,9,8)              116.0769         estimate D2E/DX2                !
 ! A26   A(3,9,16)             122.183          estimate D2E/DX2                !
 ! A27   A(8,9,16)             121.7401         estimate D2E/DX2                !
 ! A28   A(10,17,18)           122.0121         estimate D2E/DX2                !
 ! A29   A(10,17,19)           122.0387         estimate D2E/DX2                !
 ! A30   A(18,17,19)           105.4666         estimate D2E/DX2                !
 ! A31   L(1,10,17,13,-1)      168.2866         estimate D2E/DX2                !
 ! A32   L(1,10,17,13,-2)      180.0802         estimate D2E/DX2                !
 ! D1    D(5,1,2,3)             -0.0061         estimate D2E/DX2                !
 ! D2    D(5,1,2,6)            179.9772         estimate D2E/DX2                !
 ! D3    D(10,1,2,3)           179.9701         estimate D2E/DX2                !
 ! D4    D(10,1,2,6)            -0.0466         estimate D2E/DX2                !
 ! D5    D(2,1,5,4)              0.0114         estimate D2E/DX2                !
 ! D6    D(2,1,5,12)           179.9953         estimate D2E/DX2                !
 ! D7    D(10,1,5,4)          -179.9643         estimate D2E/DX2                !
 ! D8    D(10,1,5,12)            0.0196         estimate D2E/DX2                !
 ! D9    D(2,1,17,18)         -107.628          estimate D2E/DX2                !
 ! D10   D(2,1,17,19)          107.1806         estimate D2E/DX2                !
 ! D11   D(5,1,17,18)           72.2753         estimate D2E/DX2                !
 ! D12   D(5,1,17,19)          -72.9162         estimate D2E/DX2                !
 ! D13   D(1,2,3,4)             -0.0013         estimate D2E/DX2                !
 ! D14   D(1,2,3,9)            179.997          estimate D2E/DX2                !
 ! D15   D(6,2,3,4)           -179.9866         estimate D2E/DX2                !
 ! D16   D(6,2,3,9)              0.0117         estimate D2E/DX2                !
 ! D17   D(1,2,6,7)           -179.9945         estimate D2E/DX2                !
 ! D18   D(1,2,6,13)            -0.0053         estimate D2E/DX2                !
 ! D19   D(3,2,6,7)             -0.0133         estimate D2E/DX2                !
 ! D20   D(3,2,6,13)           179.9759         estimate D2E/DX2                !
 ! D21   D(2,3,4,5)              0.0083         estimate D2E/DX2                !
 ! D22   D(2,3,4,11)           179.993          estimate D2E/DX2                !
 ! D23   D(9,3,4,5)           -179.9899         estimate D2E/DX2                !
 ! D24   D(9,3,4,11)            -0.0051         estimate D2E/DX2                !
 ! D25   D(2,3,9,8)             -0.0025         estimate D2E/DX2                !
 ! D26   D(2,3,9,16)          -179.9933         estimate D2E/DX2                !
 ! D27   D(4,3,9,8)            179.9953         estimate D2E/DX2                !
 ! D28   D(4,3,9,16)             0.0046         estimate D2E/DX2                !
 ! D29   D(3,4,5,1)             -0.0124         estimate D2E/DX2                !
 ! D30   D(3,4,5,12)          -179.9964         estimate D2E/DX2                !
 ! D31   D(11,4,5,1)          -179.9975         estimate D2E/DX2                !
 ! D32   D(11,4,5,12)            0.0185         estimate D2E/DX2                !
 ! D33   D(2,6,7,8)              0.0067         estimate D2E/DX2                !
 ! D34   D(2,6,7,14)           179.9918         estimate D2E/DX2                !
 ! D35   D(13,6,7,8)          -179.9824         estimate D2E/DX2                !
 ! D36   D(13,6,7,14)            0.0027         estimate D2E/DX2                !
 ! D37   D(6,7,8,9)              0.002          estimate D2E/DX2                !
 ! D38   D(6,7,8,15)           179.9981         estimate D2E/DX2                !
 ! D39   D(14,7,8,9)          -179.9831         estimate D2E/DX2                !
 ! D40   D(14,7,8,15)            0.013          estimate D2E/DX2                !
 ! D41   D(7,8,9,3)             -0.0041         estimate D2E/DX2                !
 ! D42   D(7,8,9,16)           179.9867         estimate D2E/DX2                !
 ! D43   D(15,8,9,3)           179.9998         estimate D2E/DX2                !
 ! D44   D(15,8,9,16)           -0.0094         estimate D2E/DX2                !
 --------------------------------------------------------------------------------
 Trust Radius=3.00D-01 FncErr=1.00D-07 GrdErr=1.00D-06
 Number of steps in this run=    106 maximum allowed number of steps=    114.
 GradGradGradGradGradGradGradGradGradGradGradGradGradGradGradGradGradGrad

                          Input orientation:                          
 ---------------------------------------------------------------------
 Center     Atomic      Atomic             Coordinates (Angstroms)
 Number     Number       Type             X           Y           Z
 ---------------------------------------------------------------------
      1          7           0       -0.109249    0.000482    1.005112
      2          6           0       -0.473431    0.775234   -0.101631
      3          6           0       -1.215078   -0.071688   -0.964370
      4          7           0       -1.255914   -1.316858   -0.324305
      5          6           0       -0.588101   -1.241325    0.847097
      6          6           0       -0.224429    2.120012   -0.419715
      7          6           0       -0.748442    2.575052   -1.633646
      8          6           0       -1.490352    1.726057   -2.495975
      9          6           0       -1.740784    0.385679   -2.182609
     10          1           0        0.454983    0.353507    1.827618
     11          1           0       -1.714332   -2.159286   -0.674389
     12          1           0       -0.461918   -2.063805    1.548350
     13          1           0        0.347519    2.768883    0.248905
     14          1           0       -0.582690    3.615561   -1.928411
     15          1           0       -1.878732    2.131800   -3.434906
     16          1           0       -2.313234   -0.264065   -2.850567
     17          8           0        1.347420    1.205890    2.955124
     18          1           0        2.297090    1.025733    3.108855
     19          1           0        0.982674    1.448138    3.830464
 ---------------------------------------------------------------------
                    Distance matrix (angstroms):
                    1          2          3          4          5
     1  N    0.000000
     2  C    1.399196   0.000000
     3  C    2.259851   1.418321   0.000000
     4  N    2.194897   2.244708   1.400642   0.000000
     5  C    1.340281   2.231534   2.245565   1.350504   0.000000
     6  C    2.556522   1.404139   2.466087   3.589588   3.610493
     7  C    3.741660   2.379505   2.769641   4.137495   4.554616
     8  C    4.140370   2.769671   2.377704   3.745723   4.560213
     9  C    3.601645   2.467470   1.403445   2.566520   3.626974
    10  H    1.058065   2.182157   3.281020   3.216840   2.143113
    11  H    3.172005   3.237174   2.165966   1.020975   2.103799
    12  H    2.163507   3.283704   3.293864   2.166840   1.088187
    13  H    2.905947   2.184370   3.461588   4.426381   4.161128
    14  H    4.679583   3.378834   3.863301   5.230215   5.593998
    15  H    5.233292   3.863401   3.376291   4.685828   5.601719
    16  H    4.449022   3.467228   2.191049   2.933990   4.195693
    17  O    2.716144   3.583952   4.853971   4.888380   3.765485
    18  H    3.356686   4.248030   5.489155   5.467921   4.310386
    19  H    3.357174   4.246694   5.489118   5.469788   4.312890
                    6          7          8          9         10
     6  C    0.000000
     7  C    1.398313   0.000000
     8  C    2.463456   1.419449   0.000000
     9  C    2.900869   2.465656   1.399117   0.000000
    10  H    2.938137   4.285305   4.935755   4.572127   0.000000
    11  H    4.538399   4.926162   4.297003   2.958424   4.156933
    12  H    4.629687   5.632601   5.637135   4.642793   2.600403
    13  H    1.093257   2.186938   3.464047   3.994112   2.887546
    14  H    2.154340   1.094084   2.171682   3.440630   5.081881
    15  H    3.439220   2.172226   1.094101   2.153187   6.025173
    16  H    3.994493   3.462666   2.182534   1.093633   5.470817
    17  O    3.833519   5.227241   6.167496   6.050293   1.671607
    18  H    4.472841   5.845252   6.800683   6.686829   2.342395
    19  H    4.469064   5.841506   6.798303   6.686037   2.342662
                   11         12         13         14         15
    11  H    0.000000
    12  H    2.553082   0.000000
    13  H    5.421305   5.069381   0.000000
    14  H    6.016813   6.660154   2.514529   0.000000
    15  H    5.104988   6.666581   4.351153   2.480080   0.000000
    16  H    2.947252   5.100677   5.087741   4.347028   2.504079
    17  O    5.819974   3.992947   3.281215   5.777608   7.217884
    18  H    6.367793   4.426347   3.875398   6.354085   7.841026
    19  H    6.370326   4.430421   3.869800   6.349231   7.838408
                   16         17         18         19
    16  H    0.000000
    17  O    7.019060   0.000000
    18  H    7.644173   0.978756   0.000000
    19  H    7.644006   0.978746   1.557830   0.000000
 Stoichiometry    C7H9N2O(1+)
 Framework group  C1[X(C7H9N2O)]
 Deg. of freedom    51
 Full point group                 C1      NOp   1
 Largest Abelian subgroup         C1      NOp   1
 Largest concise Abelian subgroup C1      NOp   1
                         Standard orientation:                         
 ---------------------------------------------------------------------
 Center     Atomic      Atomic             Coordinates (Angstroms)
 Number     Number       Type             X           Y           Z
 ---------------------------------------------------------------------
      1          7           0        1.312131    0.458909   -0.000894
      2          6           0        0.065769   -0.176959   -0.000417
      3          6           0       -0.913848    0.848705    0.000213
      4          7           0       -0.197437    2.052264    0.000110
      5          6           0        1.126617    1.786289   -0.000720
      6          6           0       -0.286386   -1.536222   -0.000786
      7          6           0       -1.655653   -1.819747   -0.000206
      8          6           0       -2.634744   -0.792024    0.000564
      9          6           0       -2.287996    0.563444    0.000746
     10          1           0        2.243785   -0.042609   -0.000961
     11          1           0       -0.597760    2.991483    0.000363
     12          1           0        1.914519    2.536863   -0.000923
     13          1           0        0.472566   -2.323115   -0.001664
     14          1           0       -1.983176   -2.863657   -0.000596
     15          1           0       -3.693544   -1.067707    0.000966
     16          1           0       -3.046468    1.351323    0.001125
     17          8           0        3.524170   -1.117264    0.001188
     18          1           0        4.107078   -1.228250    0.779560
     19          1           0        4.104235   -1.235343   -0.778251
 ---------------------------------------------------------------------
 Rotational constants (GHZ):      2.0625832      1.0104098      0.6804172
 Standard basis: 6-31G(d) (6D, 7F)
 There are   168 symmetry adapted cartesian basis functions of A   symmetry.
 There are   168 symmetry adapted basis functions of A   symmetry.
   168 basis functions,   316 primitive gaussians,   168 cartesian basis functions
    36 alpha electrons       36 beta electrons
       nuclear repulsion energy       500.0687344004 Hartrees.
 NAtoms=   19 NActive=   19 NUniq=   19 SFac= 1.00D+00 NAtFMM=   60 NAOKFM=F Big=F
 Integral buffers will be    131072 words long.
 Raffenetti 2 integral format.
 Two-electron integral symmetry is turned on.
 One-electron integrals computed using PRISM.
 NBasis=   168 RedAO= T EigKep=  4.11D-04  NBF=   168
 NBsUse=   168 1.00D-06 EigRej= -1.00D+00 NBFU=   168
 ExpMin= 1.61D-01 ExpMax= 5.48D+03 ExpMxC= 8.25D+02 IAcc=3 IRadAn=         5 AccDes= 0.00D+00
 Harris functional with IExCor= 1009 and IRadAn=       5 diagonalized for initial guess.
 HarFok:  IExCor= 1009 AccDes= 0.00D+00 IRadAn=         5 IDoV= 1 UseB2=F ITyADJ=14
 ICtDFT=  3500011 ScaDFX=  1.000000  1.000000  1.000000  1.000000
 FoFCou: FMM=F IPFlag=           0 FMFlag=      100000 FMFlg1=           0
         NFxFlg=           0 DoJE=T BraDBF=F KetDBF=T FulRan=T
         wScrn=  0.000000 ICntrl=     500 IOpCl=  0 I1Cent=   200000004 NGrid=           0
         NMat0=    1 NMatS0=      1 NMatT0=    0 NMatD0=    1 NMtDS0=    0 NMtDT0=    0
 Petite list used in FoFCou.
 Keep J ints in memory in canonical form, NReq=103292152.
 Requested convergence on RMS density matrix=1.00D-08 within 128 cycles.
 Requested convergence on MAX density matrix=1.00D-06.
 Requested convergence on             energy=1.00D-06.
 No special actions if energy rises.
 Integral accuracy reduced to 1.0D-05 until final iterations.
 EnCoef did     1 forward-backward iterations
 Initial convergence to 1.0D-05 achieved.  Increase integral accuracy.
 SCF Done:  E(RTPSS-TPSS) =  -456.759423266     A.U. after   16 cycles
            NFock= 16  Conv=0.55D-08     -V/T= 2.0090

 **********************************************************************

            Population analysis using the SCF density.

 **********************************************************************

 Orbital symmetries:
       Occupied  (A) (A) (A) (A) (A) (A) (A) (A) (A) (A) (A) (A)
                 (A) (A) (A) (A) (A) (A) (A) (A) (A) (A) (A) (A)
                 (A) (A) (A) (A) (A) (A) (A) (A) (A) (A) (A) (A)
       Virtual   (A) (A) (A) (A) (A) (A) (A) (A) (A) (A) (A) (A)
                 (A) (A) (A) (A) (A) (A) (A) (A) (A) (A) (A) (A)
                 (A) (A) (A) (A) (A) (A) (A) (A) (A) (A) (A) (A)
                 (A) (A) (A) (A) (A) (A) (A) (A) (A) (A) (A) (A)
                 (A) (A) (A) (A) (A) (A) (A) (A) (A) (A) (A) (A)
                 (A) (A) (A) (A) (A) (A) (A) (A) (A) (A) (A) (A)
                 (A) (A) (A) (A) (A) (A) (A) (A) (A) (A) (A) (A)
                 (A) (A) (A) (A) (A) (A) (A) (A) (A) (A) (A) (A)
                 (A) (A) (A) (A) (A) (A) (A) (A) (A) (A) (A) (A)
                 (A) (A) (A) (A) (A) (A) (A) (A) (A) (A) (A) (A)
                 (A) (A) (A) (A) (A) (A) (A) (A) (A) (A) (A) (A)
 The electronic state is 1-A.
 Alpha  occ. eigenvalues --  -19.07942 -14.36249 -14.34665 -10.26392 -10.20395
 Alpha  occ. eigenvalues --  -10.20029 -10.15774 -10.15563 -10.14748 -10.14654
 Alpha  occ. eigenvalues --   -1.14283  -1.10504  -1.02121  -0.93730  -0.84794
 Alpha  occ. eigenvalues --   -0.83894  -0.77998  -0.74235  -0.72105  -0.66161
 Alpha  occ. eigenvalues --   -0.64296  -0.63936  -0.62095  -0.60705  -0.58092
 Alpha  occ. eigenvalues --   -0.54502  -0.54366  -0.53609  -0.50390  -0.46920
 Alpha  occ. eigenvalues --   -0.46066  -0.45941  -0.45757  -0.41998  -0.36479
 Alpha  occ. eigenvalues --   -0.35944
 Alpha virt. eigenvalues --   -0.21371  -0.15867  -0.15531  -0.10896  -0.09063
 Alpha virt. eigenvalues --   -0.05820  -0.04322  -0.02264  -0.01803  -0.01602
 Alpha virt. eigenvalues --    0.00831   0.02506   0.03852   0.04580   0.05226
 Alpha virt. eigenvalues --    0.09363   0.11910   0.14591   0.15511   0.18436
 Alpha virt. eigenvalues --    0.20402   0.32226   0.32549   0.32739   0.33759
 Alpha virt. eigenvalues --    0.36162   0.37146   0.39626   0.39752   0.40068
 Alpha virt. eigenvalues --    0.41862   0.42767   0.44203   0.44769   0.45275
 Alpha virt. eigenvalues --    0.46302   0.49466   0.51603   0.54781   0.57688
 Alpha virt. eigenvalues --    0.60511   0.62130   0.63235   0.64679   0.64842
 Alpha virt. eigenvalues --    0.65281   0.66236   0.67864   0.69933   0.71458
 Alpha virt. eigenvalues --    0.74057   0.76355   0.77911   0.79104   0.80697
 Alpha virt. eigenvalues --    0.81925   0.86711   0.89199   0.91230   0.93272
 Alpha virt. eigenvalues --    0.95693   0.97073   1.01877   1.05346   1.07195
 Alpha virt. eigenvalues --    1.09967   1.11635   1.14155   1.17664   1.19011
 Alpha virt. eigenvalues --    1.22738   1.23545   1.26960   1.27399   1.29998
 Alpha virt. eigenvalues --    1.30817   1.35993   1.40635   1.49581   1.52777
 Alpha virt. eigenvalues --    1.53087   1.53517   1.59630   1.62071   1.62814
 Alpha virt. eigenvalues --    1.68130   1.72571   1.74651   1.78987   1.79794
 Alpha virt. eigenvalues --    1.82321   1.82685   1.84223   1.93992   1.95856
 Alpha virt. eigenvalues --    1.95906   2.00032   2.02538   2.03457   2.05078
 Alpha virt. eigenvalues --    2.06466   2.07397   2.09729   2.18516   2.19688
 Alpha virt. eigenvalues --    2.23471   2.35459   2.35668   2.36934   2.38522
 Alpha virt. eigenvalues --    2.42453   2.46453   2.47720   2.50240   2.53723
 Alpha virt. eigenvalues --    2.58512   2.64400   2.68633   2.77639   2.88888
 Alpha virt. eigenvalues --    3.02029   3.24054   3.52908   3.80643   3.85956
 Alpha virt. eigenvalues --    3.91263   3.96005   4.02341   4.06157   4.22448
 Alpha virt. eigenvalues --    4.24376   4.57578
          Condensed to atoms (all electrons):
               1          2          3          4          5          6
     1  N    7.026835   0.256750  -0.031259  -0.077147   0.414516  -0.071195
     2  C    0.256750   4.648671   0.512071  -0.025765  -0.088135   0.514452
     3  C   -0.031259   0.512071   4.675505   0.221378  -0.080437  -0.051687
     4  N   -0.077147  -0.025765   0.221378   6.936758   0.393095   0.009863
     5  C    0.414516  -0.088135  -0.080437   0.393095   4.712308   0.005770
     6  C   -0.071195   0.514452  -0.051687   0.009863   0.005770   4.994669
     7  C    0.005261  -0.009155  -0.035942  -0.000288  -0.000088   0.513579
     8  C   -0.000273  -0.036053  -0.007327   0.005223  -0.000052  -0.033236
     9  C    0.009798  -0.047762   0.515660  -0.077347   0.004666  -0.043955
    10  H    0.217503  -0.008969   0.003490   0.002245  -0.021515  -0.002732
    11  H    0.003367   0.004997  -0.018376   0.316884  -0.028292  -0.000100
    12  H   -0.031731   0.002390   0.002703  -0.034185   0.373101  -0.000108
    13  H   -0.003815  -0.038929   0.003841  -0.000105  -0.000035   0.356589
    14  H   -0.000093   0.002001   0.000852   0.000003   0.000003  -0.032956
    15  H    0.000002   0.000851   0.001989  -0.000092   0.000003   0.003537
    16  H   -0.000096   0.003385  -0.039708  -0.004623  -0.000108   0.000276
    17  O   -0.044993  -0.000100  -0.000009  -0.000007   0.000482   0.000270
    18  H    0.002191  -0.000011   0.000001   0.000001  -0.000056  -0.000006
    19  H    0.002189  -0.000012   0.000001   0.000001  -0.000056  -0.000006
               7          8          9         10         11         12
     1  N    0.005261  -0.000273   0.009798   0.217503   0.003367  -0.031731
     2  C   -0.009155  -0.036053  -0.047762  -0.008969   0.004997   0.002390
     3  C   -0.035942  -0.007327   0.515660   0.003490  -0.018376   0.002703
     4  N   -0.000288   0.005223  -0.077347   0.002245   0.316884  -0.034185
     5  C   -0.000088  -0.000052   0.004666  -0.021515  -0.028292   0.373101
     6  C    0.513579  -0.033236  -0.043955  -0.002732  -0.000100  -0.000108
     7  C    4.893757   0.513304  -0.034171  -0.000001   0.000004   0.000003
     8  C    0.513304   4.884313   0.519016   0.000000  -0.000040   0.000002
     9  C   -0.034171   0.519016   4.987408  -0.000061  -0.002276  -0.000087
    10  H   -0.000001   0.000000  -0.000061   0.284175   0.000006   0.000062
    11  H    0.000004  -0.000040  -0.002276   0.000006   0.326405  -0.000655
    12  H    0.000003   0.000002  -0.000087   0.000062  -0.000655   0.423966
    13  H   -0.030239   0.003577   0.000267   0.001035   0.000003   0.000000
    14  H    0.363572  -0.032352   0.003657  -0.000002   0.000000   0.000000
    15  H   -0.032152   0.363967  -0.033117   0.000000  -0.000001   0.000000
    16  H    0.003572  -0.029485   0.359985   0.000002   0.001675   0.000000
    17  O    0.000016   0.000000   0.000000   0.092433   0.000000   0.000055
    18  H   -0.000001   0.000000   0.000000  -0.004476   0.000000  -0.000004
    19  H   -0.000001   0.000000   0.000000  -0.004474   0.000000  -0.000004
              13         14         15         16         17         18
     1  N   -0.003815  -0.000093   0.000002  -0.000096  -0.044993   0.002191
     2  C   -0.038929   0.002001   0.000851   0.003385  -0.000100  -0.000011
     3  C    0.003841   0.000852   0.001989  -0.039708  -0.000009   0.000001
     4  N   -0.000105   0.000003  -0.000092  -0.004623  -0.000007   0.000001
     5  C   -0.000035   0.000003   0.000003  -0.000108   0.000482  -0.000056
     6  C    0.356589  -0.032956   0.003537   0.000276   0.000270  -0.000006
     7  C   -0.030239   0.363572  -0.032152   0.003572   0.000016  -0.000001
     8  C    0.003577  -0.032352   0.363967  -0.029485   0.000000   0.000000
     9  C    0.000267   0.003657  -0.033117   0.359985   0.000000   0.000000
    10  H    0.001035  -0.000002   0.000000   0.000002   0.092433  -0.004476
    11  H    0.000003   0.000000  -0.000001   0.001675   0.000000   0.000000
    12  H    0.000000   0.000000   0.000000   0.000000   0.000055  -0.000004
    13  H    0.502105  -0.003555  -0.000118   0.000011   0.002431  -0.000032
    14  H   -0.003555   0.499592  -0.003651  -0.000122   0.000000   0.000000
    15  H   -0.000118  -0.003651   0.498069  -0.003573   0.000000   0.000000
    16  H    0.000011  -0.000122  -0.003573   0.505569   0.000000   0.000000
    17  O    0.002431   0.000000   0.000000   0.000000   8.224195   0.249607
    18  H   -0.000032   0.000000   0.000000   0.000000   0.249607   0.332778
    19  H   -0.000032   0.000000   0.000000   0.000000   0.249609  -0.016419
              19
     1  N    0.002189
     2  C   -0.000012
     3  C    0.000001
     4  N    0.000001
     5  C   -0.000056
     6  C   -0.000006
     7  C   -0.000001
     8  C    0.000000
     9  C    0.000000
    10  H   -0.004474
    11  H    0.000000
    12  H   -0.000004
    13  H   -0.000032
    14  H    0.000000
    15  H    0.000000
    16  H    0.000000
    17  O    0.249609
    18  H   -0.016419
    19  H    0.332769
 Mulliken charges:
               1
     1  N   -0.677811
     2  C    0.309325
     3  C    0.327255
     4  N   -0.665894
     5  C    0.314829
     6  C   -0.163024
     7  C   -0.151030
     8  C   -0.150585
     9  C   -0.161682
    10  H    0.441277
    11  H    0.396401
    12  H    0.264491
    13  H    0.207002
    14  H    0.203052
    15  H    0.204285
    16  H    0.203238
    17  O   -0.773989
    18  H    0.436427
    19  H    0.436435
 Sum of Mulliken charges =   1.00000
 Mulliken charges with hydrogens summed into heavy atoms:
               1
     1  N   -0.236534
     2  C    0.309325
     3  C    0.327255
     4  N   -0.269494
     5  C    0.579319
     6  C    0.043978
     7  C    0.052022
     8  C    0.053700
     9  C    0.041556
    17  O    0.098873
 Electronic spatial extent (au):  <R**2>=           1591.1766
 Charge=              1.0000 electrons
 Dipole moment (field-independent basis, Debye):
    X=              4.7471    Y=              2.8595    Z=             -0.0029  Tot=              5.5418
 Quadrupole moment (field-independent basis, Debye-Ang):
   XX=            -12.2182   YY=            -30.8577   ZZ=            -57.2967
   XY=             -3.7330   XZ=             -0.0064   YZ=              0.0192
 Traceless Quadrupole moment (field-independent basis, Debye-Ang):
   XX=             21.2393   YY=              2.5999   ZZ=            -23.8392
   XY=             -3.7330   XZ=             -0.0064   YZ=              0.0192
 Octapole moment (field-independent basis, Debye-Ang**2):
  XXX=            127.5780  YYY=             36.2611  ZZZ=              0.0090  XYY=              9.1162
  XXY=            -30.2862  XXZ=              0.0439  XZZ=             22.2164  YZZ=             -2.2762
  YYZ=             -0.0453  XYZ=              0.0481
 Hexadecapole moment (field-independent basis, Debye-Ang**3):
 XXXX=           -498.0698 YYYY=           -460.4131 ZZZZ=            -57.0974 XXXY=           -163.3219
 XXXZ=              0.2196 YYYX=             -8.4599 YYYZ=              0.1020 ZZZX=              0.0471
 ZZZY=              0.0042 XXYY=           -215.8772 XXZZ=           -186.5794 YYZZ=           -125.0264
 XXYZ=              0.1814 YYXZ=             -0.1531 ZZXY=            -23.2865
 N-N= 5.000687344004D+02 E-N=-2.050600270702D+03  KE= 4.526636345661D+02
 Calling FoFJK, ICntrl=      2527 FMM=F ISym2X=0 I1Cent= 0 IOpClX= 0 NMat=1 NMatS=1 NMatT=0.
 ***** Axes restored to original set *****
 -------------------------------------------------------------------
 Center     Atomic                   Forces (Hartrees/Bohr)
 Number     Number              X              Y              Z
 -------------------------------------------------------------------
      1        7           0.000041537   -0.001479667    0.000957794
      2        6          -0.001447583   -0.000545886   -0.002301795
      3        6           0.001163339    0.002453563    0.000688367
      4        7           0.000443610   -0.000972645    0.001407461
      5        6           0.000207881   -0.000486894    0.000590487
      6        6           0.000829051    0.001220035    0.000809460
      7        6           0.000404960    0.001414453   -0.000042983
      8        6          -0.000664774    0.000189465   -0.001325090
      9        6          -0.000909436   -0.000665000   -0.001259990
     10        1          -0.002318979   -0.001809742   -0.003177921
     11        1           0.001527318    0.002649597    0.001258399
     12        1          -0.000560853    0.003616944   -0.003091349
     13        1          -0.002258561   -0.002616418   -0.002641394
     14        1          -0.000682244   -0.004262077    0.001185957
     15        1           0.001599617   -0.001644072    0.003855505
     16        1           0.002318946    0.002586890    0.002720825
     17        8           0.001204329    0.000236836    0.002051920
     18        1          -0.001894558    0.000528811   -0.000053440
     19        1           0.000996401   -0.000414192   -0.001632213
 -------------------------------------------------------------------
 Cartesian Forces:  Max     0.004262077 RMS     0.001762710

 GradGradGradGradGradGradGradGradGradGradGradGradGradGradGradGradGradGrad
 Berny optimization.
 FormGI is forming the generalized inverse of G from B-inverse, IUseBI=4.
 GSVD:  received Info=                   1 from GESDD.
 Internal  Forces:  Max     0.004790371 RMS     0.001547443
 Search for a local minimum.
 Step number   1 out of a maximum of  106
 All quantities printed in internal units (Hartrees-Bohrs-Radians)
 Mixed Optimization -- RFO/linear search
 Second derivative matrix not updated -- first step.
 ITU=  0
     Eigenvalues ---    0.00230   0.00230   0.00230   0.01631   0.01812
     Eigenvalues ---    0.01841   0.01851   0.01899   0.01933   0.01984
     Eigenvalues ---    0.01988   0.02027   0.02072   0.02073   0.02076
     Eigenvalues ---    0.02196   0.02416   0.07841   0.16000   0.16000
     Eigenvalues ---    0.16000   0.16000   0.16000   0.16000   0.16000
     Eigenvalues ---    0.16000   0.16000   0.22000   0.22184   0.22666
     Eigenvalues ---    0.23996   0.24658   0.34343   0.34345   0.34396
     Eigenvalues ---    0.34439   0.35023   0.37094   0.38778   0.40791
     Eigenvalues ---    0.41749   0.41844   0.44183   0.44453   0.45365
     Eigenvalues ---    0.45435   0.45607   0.51627   0.51629   0.52256
     Eigenvalues ---    0.54988
 RFO step:  Lambda=-6.40254199D-04 EMin= 2.30000000D-03
 Linear search not attempted -- first point.
 Iteration  1 RMS(Cart)=  0.06892210 RMS(Int)=  0.00224843
 Iteration  2 RMS(Cart)=  0.00440048 RMS(Int)=  0.00002854
 Iteration  3 RMS(Cart)=  0.00000779 RMS(Int)=  0.00002842
 Iteration  4 RMS(Cart)=  0.00000000 RMS(Int)=  0.00002842
 Variable       Old X    -DE/DX   Delta X   Delta X   Delta X     New X
                                 (Linear)    (Quad)   (Total)
    R1        2.64410  -0.00144   0.00000  -0.00309  -0.00309   2.64100
    R2        2.53276  -0.00390   0.00000  -0.00704  -0.00704   2.52572
    R3        1.99945  -0.00374   0.00000  -0.00965  -0.00965   1.98980
    R4        2.68024  -0.00428   0.00000  -0.00969  -0.00969   2.67055
    R5        2.65344  -0.00280   0.00000  -0.00623  -0.00623   2.64721
    R6        2.64683  -0.00133   0.00000  -0.00279  -0.00279   2.64404
    R7        2.65213  -0.00278   0.00000  -0.00617  -0.00617   2.64596
    R8        2.55208  -0.00365   0.00000  -0.00683  -0.00683   2.54525
    R9        1.92936  -0.00330   0.00000  -0.00747  -0.00747   1.92190
   R10        2.05638  -0.00479   0.00000  -0.01365  -0.01365   2.04272
   R11        2.64243  -0.00322   0.00000  -0.00701  -0.00701   2.63542
   R12        2.06596  -0.00435   0.00000  -0.01261  -0.01261   2.05335
   R13        2.68237  -0.00267   0.00000  -0.00626  -0.00626   2.67611
   R14        2.06752  -0.00448   0.00000  -0.01301  -0.01301   2.05451
   R15        2.64395  -0.00322   0.00000  -0.00701  -0.00701   2.63694
   R16        2.06755  -0.00449   0.00000  -0.01304  -0.01304   2.05451
   R17        2.06667  -0.00441   0.00000  -0.01280  -0.01280   2.05387
   R18        3.15888   0.00060   0.00000   0.00756   0.00756   3.16644
   R19        1.84958  -0.00194   0.00000  -0.00376  -0.00376   1.84582
   R20        1.84956  -0.00193   0.00000  -0.00374  -0.00374   1.84582
    A1        1.90369   0.00031   0.00000   0.00098   0.00098   1.90467
    A2        2.17601  -0.00017   0.00000  -0.00061  -0.00061   2.17540
    A3        2.20348  -0.00013   0.00000  -0.00037  -0.00037   2.20311
    A4        1.86148  -0.00020   0.00000  -0.00024  -0.00024   1.86123
    A5        2.29606  -0.00012   0.00000  -0.00085  -0.00085   2.29521
    A6        2.12565   0.00032   0.00000   0.00109   0.00109   2.12674
    A7        1.84224  -0.00028   0.00000  -0.00043  -0.00043   1.84181
    A8        2.12855   0.00027   0.00000   0.00081   0.00081   2.12936
    A9        2.31240   0.00001   0.00000  -0.00038  -0.00038   2.31201
   A10        1.90947   0.00023   0.00000   0.00087   0.00087   1.91034
   A11        2.20177   0.00004   0.00000   0.00051   0.00051   2.20227
   A12        2.17195  -0.00026   0.00000  -0.00137  -0.00137   2.17058
   A13        1.90790  -0.00006   0.00000  -0.00117  -0.00117   1.90673
   A14        2.19308   0.00003   0.00000   0.00061   0.00062   2.19369
   A15        2.18221   0.00002   0.00000   0.00055   0.00055   2.18277
   A16        2.02848  -0.00034   0.00000  -0.00140  -0.00140   2.02708
   A17        2.12076   0.00013   0.00000   0.00045   0.00045   2.12121
   A18        2.13394   0.00021   0.00000   0.00095   0.00095   2.13489
   A19        2.12779   0.00004   0.00000   0.00038   0.00038   2.12817
   A20        2.07899   0.00000   0.00000  -0.00004  -0.00004   2.07895
   A21        2.07640  -0.00004   0.00000  -0.00034  -0.00034   2.07607
   A22        2.12998   0.00004   0.00000   0.00040   0.00039   2.13037
   A23        2.07725  -0.00004   0.00000  -0.00031  -0.00031   2.07694
   A24        2.07596   0.00000   0.00000  -0.00008  -0.00008   2.07587
   A25        2.02592  -0.00032   0.00000  -0.00128  -0.00128   2.02464
   A26        2.13250   0.00011   0.00000   0.00034   0.00034   2.13284
   A27        2.12477   0.00021   0.00000   0.00094   0.00094   2.12571
   A28        2.12951   0.00023   0.00000   0.00039   0.00024   2.12976
   A29        2.12998   0.00021   0.00000   0.00031   0.00016   2.13014
   A30        1.84074  -0.00039   0.00000  -0.00358  -0.00374   1.83700
   A31        2.93715  -0.00044   0.00000  -0.13365  -0.13361   2.80354
   A32        3.14299  -0.00002   0.00000  -0.00515  -0.00510   3.13789
    D1       -0.00011   0.00001   0.00000   0.00048   0.00049   0.00039
    D2        3.14120   0.00001   0.00000   0.00064   0.00065  -3.14134
    D3        3.14107   0.00000   0.00000   0.00012   0.00011   3.14118
    D4       -0.00081   0.00001   0.00000   0.00028   0.00027  -0.00054
    D5        0.00020  -0.00001   0.00000  -0.00064  -0.00065  -0.00045
    D6        3.14151   0.00000   0.00000  -0.00018  -0.00019   3.14132
    D7       -3.14097  -0.00001   0.00000  -0.00027  -0.00026  -3.14123
    D8        0.00034   0.00000   0.00000   0.00019   0.00020   0.00054
    D9       -1.87846   0.00004   0.00000   0.02885   0.02886  -1.84960
   D10        1.87065  -0.00004   0.00000  -0.02967  -0.02973   1.84093
   D11        1.26144   0.00005   0.00000   0.03296   0.03302   1.29446
   D12       -1.27263  -0.00003   0.00000  -0.02556  -0.02558  -1.29820
   D13       -0.00002   0.00000   0.00000  -0.00015  -0.00015  -0.00018
   D14        3.14154   0.00000   0.00000  -0.00011  -0.00011   3.14143
   D15       -3.14136   0.00000   0.00000  -0.00029  -0.00029   3.14153
   D16        0.00020   0.00000   0.00000  -0.00025  -0.00025  -0.00004
   D17       -3.14150   0.00000   0.00000   0.00007   0.00007  -3.14142
   D18       -0.00009   0.00001   0.00000   0.00030   0.00030   0.00021
   D19       -0.00023   0.00000   0.00000   0.00025   0.00026   0.00002
   D20        3.14117   0.00001   0.00000   0.00048   0.00048  -3.14153
   D21        0.00014  -0.00001   0.00000  -0.00023  -0.00023  -0.00009
   D22        3.14147   0.00000   0.00000   0.00005   0.00005   3.14152
   D23       -3.14142  -0.00001   0.00000  -0.00028  -0.00029   3.14148
   D24       -0.00009   0.00000   0.00000   0.00000   0.00000  -0.00009
   D25       -0.00004   0.00000   0.00000   0.00008   0.00008   0.00004
   D26       -3.14148   0.00000   0.00000  -0.00008  -0.00008  -3.14155
   D27        3.14151   0.00000   0.00000   0.00014   0.00014  -3.14153
   D28        0.00008   0.00000   0.00000  -0.00002  -0.00002   0.00006
   D29       -0.00022   0.00001   0.00000   0.00055   0.00055   0.00034
   D30       -3.14153   0.00000   0.00000   0.00009   0.00009  -3.14144
   D31       -3.14155   0.00001   0.00000   0.00027   0.00028  -3.14127
   D32        0.00032   0.00000   0.00000  -0.00019  -0.00018   0.00014
   D33        0.00012   0.00000   0.00000  -0.00011  -0.00011   0.00000
   D34        3.14145   0.00000   0.00000   0.00018   0.00018  -3.14156
   D35       -3.14129  -0.00001   0.00000  -0.00034  -0.00034   3.14156
   D36        0.00005   0.00000   0.00000  -0.00005  -0.00005  -0.00001
   D37        0.00003   0.00000   0.00000  -0.00004  -0.00004  -0.00001
   D38        3.14156   0.00000   0.00000   0.00008   0.00008  -3.14155
   D39       -3.14130  -0.00001   0.00000  -0.00033  -0.00033   3.14155
   D40        0.00023   0.00000   0.00000  -0.00021  -0.00021   0.00002
   D41       -0.00007   0.00000   0.00000   0.00006   0.00006  -0.00001
   D42        3.14136   0.00000   0.00000   0.00022   0.00022   3.14158
   D43        3.14159   0.00000   0.00000  -0.00006  -0.00006   3.14153
   D44       -0.00016   0.00000   0.00000   0.00010   0.00010  -0.00007
         Item               Value     Threshold  Converged?
 Maximum Force            0.004790     0.000450     NO 
 RMS     Force            0.001547     0.000300     NO 
 Maximum Displacement     0.265192     0.001800     NO 
 RMS     Displacement     0.070667     0.001200     NO 
 Predicted change in Energy=-3.273543D-04
 GradGradGradGradGradGradGradGradGradGradGradGradGradGradGradGradGradGrad

                          Input orientation:                          
 ---------------------------------------------------------------------
 Center     Atomic      Atomic             Coordinates (Angstroms)
 Number     Number       Type             X           Y           Z
 ---------------------------------------------------------------------
      1          7           0       -0.119970   -0.057725    1.013682
      2          6           0       -0.471008    0.738838   -0.079675
      3          6           0       -1.214790   -0.082636   -0.956654
      4          7           0       -1.270381   -1.336609   -0.338491
      5          6           0       -0.608393   -1.288726    0.833513
      6          6           0       -0.206785    2.083183   -0.371706
      7          6           0       -0.719922    2.562607   -1.576598
      8          6           0       -1.465099    1.738135   -2.454319
      9          6           0       -1.730000    0.398710   -2.166352
     10          1           0        0.441506    0.274189    1.840299
     11          1           0       -1.733639   -2.165514   -0.702696
     12          1           0       -0.493949   -2.118782    1.516439
     13          1           0        0.365767    2.710158    0.306343
     14          1           0       -0.543429    3.599580   -1.851436
     15          1           0       -1.842814    2.161507   -3.381733
     16          1           0       -2.302450   -0.230155   -2.843178
     17          8           0        1.314192    1.280173    2.857195
     18          1           0        2.273674    1.166066    3.000181
     19          1           0        0.960490    1.582003    3.716186
 ---------------------------------------------------------------------
                    Distance matrix (angstroms):
                    1          2          3          4          5
     1  N    0.000000
     2  C    1.397559   0.000000
     3  C    2.254213   1.413195   0.000000
     4  N    2.188003   2.239075   1.399166   0.000000
     5  C    1.336555   2.227959   2.242113   1.346890   0.000000
     6  C    2.551533   1.400842   2.459473   3.581523   3.603277
     7  C    3.733046   2.372524   2.761618   4.127929   4.544649
     8  C    4.130559   2.761475   2.370836   3.737472   4.550349
     9  C    3.593486   2.460684   1.400180   2.561963   3.620032
    10  H    1.052957   2.175979   3.270105   3.205050   2.135090
    11  H    3.161116   3.227638   2.161500   1.017024   2.096395
    12  H    2.154201   3.273240   3.283549   2.157639   1.080962
    13  H    2.897834   2.176076   3.448625   4.412381   4.149454
    14  H    4.665201   3.365743   3.848386   5.213772   5.577518
    15  H    5.216594   3.848301   3.363271   4.671810   5.585355
    16  H    4.434898   3.453993   2.182599   2.926238   4.184311
    17  O    2.691716   3.479252   4.774772   4.872368   3.793529
    18  H    3.342660   4.147447   5.420810   5.474525   4.361968
    19  H    3.340604   4.143511   5.416485   5.471333   4.360308
                    6          7          8          9         10
     6  C    0.000000
     7  C    1.394604   0.000000
     8  C    2.457578   1.416135   0.000000
     9  C    2.894544   2.459780   1.395406   0.000000
    10  H    2.930138   4.273284   4.921588   4.558969   0.000000
    11  H    4.526838   4.913904   4.287047   2.952549   4.141283
    12  H    4.615633   5.615456   5.620131   4.629097   2.589647
    13  H    1.086584   2.178521   3.452268   3.981111   2.879706
    14  H    2.145318   1.087198   2.162851   3.428221   5.065297
    15  H    3.426804   2.163396   1.087202   2.144139   6.004141
    16  H    3.981396   3.450817   2.174059   1.086859   5.451478
    17  O    3.658415   5.043885   6.012185   5.939706   1.675608
    18  H    4.285254   5.644363   6.637564   6.581132   2.344698
    19  H    4.280722   5.639054   6.631968   6.575954   2.344926
                   11         12         13         14         15
    11  H    0.000000
    12  H    2.542356   0.000000
    13  H    5.403502   5.051941   0.000000
    14  H    5.997709   6.636618   2.504739   0.000000
    15  H    5.090409   6.643222   4.333676   2.469467   0.000000
    16  H    2.941229   5.083685   5.067968   4.329501   2.494263
    17  O    5.816773   4.076751   3.074282   5.567909   7.047528
    18  H    6.392908   4.544387   3.644323   6.115246   7.659320
    19  H    6.389736   4.544237   3.640530   6.109894   7.653417
                   16         17         18         19
    16  H    0.000000
    17  O    6.917763   0.000000
    18  H    7.552164   0.976765   0.000000
    19  H    7.546917   0.976766   1.552456   0.000000
 Stoichiometry    C7H9N2O(1+)
 Framework group  C1[X(C7H9N2O)]
 Deg. of freedom    51
 Full point group                 C1      NOp   1
 Largest Abelian subgroup         C1      NOp   1
 Largest concise Abelian subgroup C1      NOp   1
                         Standard orientation:                         
 ---------------------------------------------------------------------
 Center     Atomic      Atomic             Coordinates (Angstroms)
 Number     Number       Type             X           Y           Z
 ---------------------------------------------------------------------
      1          7           0        1.312251    0.530033    0.001372
      2          6           0        0.090660   -0.148854    0.000963
      3          6           0       -0.920814    0.838080   -0.000339
      4          7           0       -0.247434    2.064548   -0.000406
      5          6           0        1.081696    1.846553    0.000883
      6          6           0       -0.211177   -1.516792    0.001471
      7          6           0       -1.566103   -1.847090    0.000590
      8          6           0       -2.578501   -0.856894   -0.000746
      9          6           0       -2.281157    0.506463   -0.001248
     10          1           0        2.256246    0.063567    0.002659
     11          1           0       -0.678061    2.985904   -0.001269
     12          1           0        1.837704    2.619166    0.001272
     13          1           0        0.570713   -2.271318    0.002531
     14          1           0       -1.855089   -2.895177    0.000966
     15          1           0       -3.620198   -1.168142   -0.001348
     16          1           0       -3.061692    1.262788   -0.002286
     17          8           0        3.427252   -1.134928   -0.001434
     18          1           0        3.998721   -1.303400    0.772589
     19          1           0        3.992295   -1.304820   -0.779853
 ---------------------------------------------------------------------
 Rotational constants (GHZ):      2.0104558      1.0569323      0.6950588
 Standard basis: 6-31G(d) (6D, 7F)
 There are   168 symmetry adapted cartesian basis functions of A   symmetry.
 There are   168 symmetry adapted basis functions of A   symmetry.
   168 basis functions,   316 primitive gaussians,   168 cartesian basis functions
    36 alpha electrons       36 beta electrons
       nuclear repulsion energy       502.5629903360 Hartrees.
 NAtoms=   19 NActive=   19 NUniq=   19 SFac= 1.00D+00 NAtFMM=   60 NAOKFM=F Big=F
 Integral buffers will be    131072 words long.
 Raffenetti 2 integral format.
 Two-electron integral symmetry is turned on.
 One-electron integrals computed using PRISM.
 NBasis=   168 RedAO= T EigKep=  4.00D-04  NBF=   168
 NBsUse=   168 1.00D-06 EigRej= -1.00D+00 NBFU=   168
 Initial guess from the checkpoint file:  "BzmH.H2O.chk"
 B after Tr=     0.000000    0.000000    0.000000
         Rot=    0.999971   -0.000026   -0.000013   -0.007594 Ang=  -0.87 deg.
 ExpMin= 1.61D-01 ExpMax= 5.48D+03 ExpMxC= 8.25D+02 IAcc=2 IRadAn=         4 AccDes= 0.00D+00
 Harris functional with IExCor= 1009 and IRadAn=       4 diagonalized for initial guess.
 HarFok:  IExCor= 1009 AccDes= 0.00D+00 IRadAn=         4 IDoV= 1 UseB2=F ITyADJ=14
 ICtDFT=  3500011 ScaDFX=  1.000000  1.000000  1.000000  1.000000
 FoFCou: FMM=F IPFlag=           0 FMFlag=      100000 FMFlg1=           0
         NFxFlg=           0 DoJE=T BraDBF=F KetDBF=T FulRan=T
         wScrn=  0.000000 ICntrl=     500 IOpCl=  0 I1Cent=   200000004 NGrid=           0
         NMat0=    1 NMatS0=      1 NMatT0=    0 NMatD0=    1 NMtDS0=    0 NMtDT0=    0
 Petite list used in FoFCou.
 Keep J ints in memory in canonical form, NReq=103292152.
 Requested convergence on RMS density matrix=1.00D-08 within 128 cycles.
 Requested convergence on MAX density matrix=1.00D-06.
 Requested convergence on             energy=1.00D-06.
 No special actions if energy rises.
 Integral accuracy reduced to 1.0D-05 until final iterations.
 Initial convergence to 1.0D-05 achieved.  Increase integral accuracy.
 SCF Done:  E(RTPSS-TPSS) =  -456.759586454     A.U. after   12 cycles
            NFock= 12  Conv=0.71D-08     -V/T= 2.0087
 Calling FoFJK, ICntrl=      2527 FMM=F ISym2X=0 I1Cent= 0 IOpClX= 0 NMat=1 NMatS=1 NMatT=0.
 ***** Axes restored to original set *****
 -------------------------------------------------------------------
 Center     Atomic                   Forces (Hartrees/Bohr)
 Number     Number              X              Y              Z
 -------------------------------------------------------------------
      1        7           0.000626905   -0.001823668    0.001947815
      2        6           0.000021373    0.000192537   -0.000023586
      3        6           0.000294090    0.000150611    0.000455395
      4        7          -0.000220921   -0.000817267    0.000038403
      5        6          -0.000283124    0.000459405   -0.000702667
      6        6           0.000267385    0.000554314    0.000170765
      7        6           0.000024194    0.000078884   -0.000008766
      8        6          -0.000112521    0.000057005   -0.000240027
      9        6          -0.000181127   -0.000214415   -0.000201891
     10        1          -0.001395996    0.001076799   -0.002935291
     11        1          -0.000036502   -0.000027650   -0.000060031
     12        1           0.000020027   -0.000258982    0.000192794
     13        1           0.000029147   -0.000132682    0.000134010
     14        1           0.000009410    0.000182365   -0.000088349
     15        1          -0.000059775    0.000099604   -0.000160892
     16        1          -0.000079203   -0.000086476   -0.000097566
     17        8           0.000942231    0.000472815    0.001350607
     18        1           0.000174733   -0.000000801    0.000059848
     19        1          -0.000040326    0.000037602    0.000169428
 -------------------------------------------------------------------
 Cartesian Forces:  Max     0.002935291 RMS     0.000661664

 GradGradGradGradGradGradGradGradGradGradGradGradGradGradGradGradGradGrad
 Berny optimization.
 Using GEDIIS/GDIIS optimizer.
 FormGI is forming the generalized inverse of G from B-inverse, IUseBI=4.
 Internal  Forces:  Max     0.002374866 RMS     0.000366281
 Search for a local minimum.
 Step number   2 out of a maximum of  106
 All quantities printed in internal units (Hartrees-Bohrs-Radians)
 Mixed Optimization -- En-DIIS/RFO-DIIS
 Update second derivatives using D2CorX and points    1    2
 DE= -1.63D-04 DEPred=-3.27D-04 R= 4.99D-01
 Trust test= 4.99D-01 RLast= 1.51D-01 DXMaxT set to 3.00D-01
 ITU=  0  0
 Use linear search instead of GDIIS.
     Eigenvalues ---    0.00230   0.00230   0.00488   0.01611   0.01830
     Eigenvalues ---    0.01841   0.01853   0.01899   0.01933   0.01984
     Eigenvalues ---    0.01988   0.02026   0.02072   0.02073   0.02076
     Eigenvalues ---    0.02195   0.02416   0.07400   0.15796   0.16000
     Eigenvalues ---    0.16000   0.16000   0.16000   0.16000   0.16000
     Eigenvalues ---    0.16000   0.16048   0.21998   0.22233   0.22553
     Eigenvalues ---    0.23953   0.24659   0.28094   0.34344   0.34376
     Eigenvalues ---    0.34426   0.34907   0.37002   0.38176   0.40766
     Eigenvalues ---    0.41616   0.41829   0.43744   0.44470   0.45244
     Eigenvalues ---    0.45454   0.45511   0.50982   0.51628   0.51783
     Eigenvalues ---    0.54915
 RFO step:  Lambda=-6.72520749D-04 EMin= 2.29959430D-03
 Quartic linear search produced a step of -0.32911.
 Iteration  1 RMS(Cart)=  0.09753974 RMS(Int)=  0.01448627
 Iteration  2 RMS(Cart)=  0.06454751 RMS(Int)=  0.00220906
 Iteration  3 RMS(Cart)=  0.00388139 RMS(Int)=  0.00019410
 Iteration  4 RMS(Cart)=  0.00000294 RMS(Int)=  0.00019410
 Iteration  5 RMS(Cart)=  0.00000000 RMS(Int)=  0.00019410
 Variable       Old X    -DE/DX   Delta X   Delta X   Delta X     New X
                                 (Linear)    (Quad)   (Total)
    R1        2.64100   0.00031   0.00102  -0.00416  -0.00314   2.63787
    R2        2.52572   0.00033   0.00232  -0.01013  -0.00781   2.51791
    R3        1.98980  -0.00073   0.00318  -0.01568  -0.01250   1.97730
    R4        2.67055   0.00020   0.00319  -0.01416  -0.01097   2.65958
    R5        2.64721   0.00047   0.00205  -0.00859  -0.00653   2.64067
    R6        2.64404   0.00042   0.00092  -0.00352  -0.00260   2.64144
    R7        2.64596   0.00045   0.00203  -0.00853  -0.00650   2.63946
    R8        2.54525   0.00002   0.00225  -0.01019  -0.00795   2.53731
    R9        1.92190   0.00006   0.00246  -0.01107  -0.00861   1.91328
   R10        2.04272   0.00032   0.00449  -0.01977  -0.01528   2.02744
   R11        2.63542   0.00042   0.00231  -0.00983  -0.00753   2.62789
   R12        2.05335   0.00002   0.00415  -0.01881  -0.01466   2.03869
   R13        2.67611   0.00044   0.00206  -0.00863  -0.00657   2.66953
   R14        2.05451   0.00020   0.00428  -0.01905  -0.01477   2.03974
   R15        2.63694   0.00041   0.00231  -0.00986  -0.00756   2.62938
   R16        2.05451   0.00020   0.00429  -0.01910  -0.01481   2.03971
   R17        2.05387   0.00015   0.00421  -0.01883  -0.01462   2.03925
   R18        3.16644   0.00182  -0.00249   0.02719   0.02470   3.19114
   R19        1.84582   0.00018   0.00124  -0.00538  -0.00414   1.84168
   R20        1.84582   0.00018   0.00123  -0.00536  -0.00413   1.84170
    A1        1.90467  -0.00010  -0.00032   0.00115   0.00083   1.90550
    A2        2.17540  -0.00070   0.00020  -0.00400  -0.00380   2.17161
    A3        2.20311   0.00079   0.00012   0.00285   0.00297   2.20608
    A4        1.86123  -0.00012   0.00008  -0.00066  -0.00058   1.86065
    A5        2.29521   0.00001   0.00028  -0.00126  -0.00098   2.29423
    A6        2.12674   0.00011  -0.00036   0.00192   0.00156   2.12831
    A7        1.84181   0.00023   0.00014   0.00004   0.00018   1.84199
    A8        2.12936  -0.00002  -0.00027   0.00114   0.00087   2.13023
    A9        2.31201  -0.00021   0.00013  -0.00117  -0.00105   2.31097
   A10        1.91034  -0.00029  -0.00028   0.00037   0.00009   1.91042
   A11        2.20227   0.00010  -0.00017   0.00103   0.00086   2.20313
   A12        2.17058   0.00019   0.00045  -0.00140  -0.00095   2.16963
   A13        1.90673   0.00028   0.00038  -0.00089  -0.00051   1.90622
   A14        2.19369  -0.00012  -0.00020   0.00059   0.00039   2.19408
   A15        2.18277  -0.00016  -0.00018   0.00030   0.00012   2.18288
   A16        2.02708  -0.00009   0.00046  -0.00236  -0.00190   2.02518
   A17        2.12121  -0.00015  -0.00015  -0.00004  -0.00019   2.12103
   A18        2.13489   0.00024  -0.00031   0.00240   0.00209   2.13698
   A19        2.12817   0.00003  -0.00013   0.00068   0.00056   2.12873
   A20        2.07895   0.00003   0.00001   0.00007   0.00009   2.07904
   A21        2.07607  -0.00006   0.00011  -0.00076  -0.00065   2.07542
   A22        2.13037  -0.00002  -0.00013   0.00054   0.00041   2.13078
   A23        2.07694  -0.00002   0.00010  -0.00056  -0.00046   2.07648
   A24        2.07587   0.00004   0.00003   0.00002   0.00005   2.07593
   A25        2.02464   0.00000   0.00042  -0.00192  -0.00149   2.02315
   A26        2.13284   0.00000  -0.00011   0.00053   0.00041   2.13325
   A27        2.12571  -0.00001  -0.00031   0.00139   0.00108   2.12679
   A28        2.12976   0.00023  -0.00008   0.00730   0.00627   2.13603
   A29        2.13014   0.00019  -0.00005   0.00701   0.00602   2.13616
   A30        1.83700   0.00018   0.00123   0.00175   0.00185   1.83885
   A31        2.80354   0.00237   0.04397   0.27735   0.32157   3.12511
   A32        3.13789   0.00008   0.00168   0.00692   0.00886   3.14675
    D1        0.00039  -0.00002  -0.00016   0.00006  -0.00004   0.00034
    D2       -3.14134  -0.00001  -0.00021   0.00048   0.00031  -3.14103
    D3        3.14118   0.00001  -0.00004   0.00073   0.00061  -3.14139
    D4       -0.00054   0.00002  -0.00009   0.00115   0.00097   0.00043
    D5       -0.00045   0.00002   0.00021  -0.00017  -0.00001  -0.00046
    D6        3.14132   0.00001   0.00006   0.00026   0.00027   3.14159
    D7       -3.14123  -0.00001   0.00009  -0.00085  -0.00068   3.14127
    D8        0.00054  -0.00002  -0.00007  -0.00042  -0.00040   0.00014
    D9       -1.84960  -0.00004  -0.00950  -0.04835  -0.05774  -1.90734
   D10        1.84093   0.00008   0.00978   0.06233   0.07170   1.91263
   D11        1.29446  -0.00007  -0.01087  -0.05440  -0.06486   1.22960
   D12       -1.29820   0.00005   0.00842   0.05628   0.06458  -1.23362
   D13       -0.00018   0.00001   0.00005   0.00006   0.00008  -0.00009
   D14        3.14143   0.00001   0.00004   0.00004   0.00006   3.14149
   D15        3.14153   0.00000   0.00010  -0.00031  -0.00023   3.14130
   D16       -0.00004   0.00000   0.00008  -0.00032  -0.00025  -0.00030
   D17       -3.14142  -0.00001  -0.00002  -0.00013  -0.00014  -3.14157
   D18        0.00021   0.00000  -0.00010   0.00029   0.00020   0.00041
   D19        0.00002   0.00000  -0.00008   0.00033   0.00026   0.00028
   D20       -3.14153   0.00000  -0.00016   0.00076   0.00060  -3.14093
   D21       -0.00009   0.00001   0.00008  -0.00016  -0.00009  -0.00018
   D22        3.14152   0.00000  -0.00002  -0.00006  -0.00006   3.14146
   D23        3.14148   0.00001   0.00009  -0.00014  -0.00007   3.14141
   D24       -0.00009   0.00000   0.00000  -0.00004  -0.00004  -0.00013
   D25        0.00004   0.00000  -0.00003   0.00010   0.00007   0.00011
   D26       -3.14155   0.00000   0.00003  -0.00011  -0.00009   3.14154
   D27       -3.14153   0.00000  -0.00005   0.00007   0.00005  -3.14149
   D28        0.00006   0.00000   0.00001  -0.00014  -0.00012  -0.00006
   D29        0.00034  -0.00002  -0.00018   0.00021   0.00007   0.00040
   D30       -3.14144  -0.00001  -0.00003  -0.00021  -0.00021   3.14154
   D31       -3.14127  -0.00001  -0.00009   0.00011   0.00003  -3.14124
   D32        0.00014   0.00000   0.00006  -0.00031  -0.00024  -0.00010
   D33        0.00000   0.00000   0.00004  -0.00015  -0.00011  -0.00011
   D34       -3.14156   0.00000  -0.00006   0.00029   0.00023  -3.14133
   D35        3.14156   0.00000   0.00011  -0.00058  -0.00046   3.14110
   D36       -0.00001   0.00000   0.00002  -0.00014  -0.00011  -0.00012
   D37       -0.00001   0.00000   0.00001  -0.00007  -0.00006  -0.00007
   D38       -3.14155   0.00000  -0.00003   0.00008   0.00005  -3.14149
   D39        3.14155   0.00000   0.00011  -0.00051  -0.00040   3.14116
   D40        0.00002   0.00000   0.00007  -0.00036  -0.00029  -0.00027
   D41       -0.00001   0.00000  -0.00002   0.00009   0.00007   0.00006
   D42        3.14158   0.00000  -0.00007   0.00030   0.00024  -3.14137
   D43        3.14153   0.00000   0.00002  -0.00005  -0.00004   3.14149
   D44       -0.00007   0.00000  -0.00003   0.00016   0.00013   0.00006
         Item               Value     Threshold  Converged?
 Maximum Force            0.002375     0.000450     NO 
 RMS     Force            0.000366     0.000300     NO 
 Maximum Displacement     0.617852     0.001800     NO 
 RMS     Displacement     0.159012     0.001200     NO 
 Predicted change in Energy=-4.600012D-04
 GradGradGradGradGradGradGradGradGradGradGradGradGradGradGradGradGradGrad

                          Input orientation:                          
 ---------------------------------------------------------------------
 Center     Atomic      Atomic             Coordinates (Angstroms)
 Number     Number       Type             X           Y           Z
 ---------------------------------------------------------------------
      1          7           0       -0.097168    0.083011    0.984027
      2          6           0       -0.477597    0.825495   -0.135136
      3          6           0       -1.207584   -0.044789   -0.966080
      4          7           0       -1.227027   -1.272234   -0.297638
      5          6           0       -0.556395   -1.161636    0.860301
      6          6           0       -0.247718    2.159478   -0.482017
      7          6           0       -0.783203    2.575401   -1.696138
      8          6           0       -1.515921    1.700897   -2.529184
      9          6           0       -1.745699    0.372286   -2.185657
     10          1           0        0.460898    0.462305    1.783733
     11          1           0       -1.671962   -2.122456   -0.620505
     12          1           0       -0.416448   -1.954199    1.569754
     13          1           0        0.313369    2.820601    0.159827
     14          1           0       -0.635256    3.596495   -2.013225
     15          1           0       -1.909987    2.074916   -3.461844
     16          1           0       -2.305800   -0.292611   -2.824958
     17          8           0        1.369687    1.096913    3.057707
     18          1           0        2.296291    0.840080    3.216566
     19          1           0        0.990520    1.255050    3.941470
 ---------------------------------------------------------------------
                    Distance matrix (angstroms):
                    1          2          3          4          5
     1  N    0.000000
     2  C    1.395899   0.000000
     3  C    2.247727   1.407389   0.000000
     4  N    2.180811   2.233499   1.397789   0.000000
     5  C    1.332420   2.223914   2.237647   1.342685   0.000000
     6  C    2.546305   1.397384   2.452438   3.573470   3.595400
     7  C    3.723699   2.364804   2.752904   4.117897   4.533461
     8  C    4.119838   2.752437   2.363426   3.728641   4.539096
     9  C    3.584443   2.453186   1.396742   2.556968   3.611817
    10  H    1.046341   2.166734   3.256140   3.192150   2.127156
    11  H    3.149379   3.217531   2.156796   1.012467   2.088170
    12  H    2.143652   3.261455   3.271422   2.146921   1.072877
    13  H    2.888294   2.166351   3.433864   4.396975   4.135863
    14  H    4.649476   3.351196   3.831843   5.195955   5.559063
    15  H    5.198054   3.831420   3.348933   4.656398   5.566724
    16  H    4.418995   3.439132   2.173228   2.917321   4.170942
    17  O    2.734924   3.698699   4.912909   4.859436   3.693159
    18  H    3.359468   4.350698   5.527627   5.406040   4.206740
    19  H    3.362024   4.354147   5.532205   5.410611   4.210334
                    6          7          8          9         10
     6  C    0.000000
     7  C    1.390621   0.000000
     8  C    2.451433   1.412656   0.000000
     9  C    2.887974   2.453517   1.391408   0.000000
    10  H    2.918246   4.257049   4.903384   4.542382   0.000000
    11  H    4.514711   4.900688   4.276146   2.945993   4.124372
    12  H    4.600063   5.596235   5.600880   4.613302   2.579731
    13  H    1.078826   2.169608   3.439595   3.966775   2.867123
    14  H    2.135369   1.079382   2.152922   3.414431   5.043966
    15  H    3.413159   2.153565   1.079367   2.134149   5.978100
    16  H    3.967091   3.437736   2.164593   1.079123   5.428125
    17  O    4.034191   5.424012   6.317031   6.141953   1.688679
    18  H    4.678922   6.052213   6.948928   6.763175   2.358896
    19  H    4.681716   6.055745   6.953444   6.768150   2.358978
                   11         12         13         14         15
    11  H    0.000000
    12  H    2.530191   0.000000
    13  H    5.383704   5.031823   0.000000
    14  H    5.976690   6.610282   2.494806   0.000000
    15  H    5.074228   6.616752   4.314610   2.457364   0.000000
    16  H    2.934228   5.063993   5.045897   4.309845   2.483440
    17  O    5.757188   3.835827   3.533358   5.998505   7.363240
    18  H    6.264724   4.228349   4.147059   6.598675   7.988664
    19  H    6.269607   4.231297   4.148531   6.601811   7.993383
                   16         17         18         19
    16  H    0.000000
    17  O    7.074301   0.000000
    18  H    7.678687   0.974574   0.000000
    19  H    7.684109   0.974583   1.550073   0.000000
 Stoichiometry    C7H9N2O(1+)
 Framework group  C1[X(C7H9N2O)]
 Deg. of freedom    51
 Full point group                 C1      NOp   1
 Largest Abelian subgroup         C1      NOp   1
 Largest concise Abelian subgroup C1      NOp   1
                         Standard orientation:                         
 ---------------------------------------------------------------------
 Center     Atomic      Atomic             Coordinates (Angstroms)
 Number     Number       Type             X           Y           Z
 ---------------------------------------------------------------------
      1          7           0        1.297930    0.361085   -0.002464
      2          6           0        0.025778   -0.213511   -0.001452
      3          6           0       -0.895971    0.850030    0.000315
      4          7           0       -0.123520    2.014991    0.000400
      5          6           0        1.178780    1.688166   -0.000972
      6          6           0       -0.386094   -1.548818   -0.001694
      7          6           0       -1.760001   -1.763766   -0.000436
      8          6           0       -2.684157   -0.695341    0.001129
      9          6           0       -2.276040    0.634868    0.001582
     10          1           0        2.192281   -0.182021   -0.004010
     11          1           0       -0.473500    2.965045    0.001380
     12          1           0        1.990430    2.389800   -0.001276
     13          1           0        0.326385   -2.358904   -0.002442
     14          1           0       -2.133210   -2.776574   -0.000307
     15          1           0       -3.740383   -0.917643    0.002157
     16          1           0       -2.985252    1.448208    0.002986
     17          8           0        3.621018   -1.082193    0.002114
     18          1           0        4.207703   -1.124967    0.779137
     19          1           0        4.212755   -1.127697   -0.770925
 ---------------------------------------------------------------------
 Rotational constants (GHZ):      2.1755124      0.9697862      0.6729366
 Standard basis: 6-31G(d) (6D, 7F)
 There are   168 symmetry adapted cartesian basis functions of A   symmetry.
 There are   168 symmetry adapted basis functions of A   symmetry.
   168 basis functions,   316 primitive gaussians,   168 cartesian basis functions
    36 alpha electrons       36 beta electrons
       nuclear repulsion energy       501.3425104821 Hartrees.
 NAtoms=   19 NActive=   19 NUniq=   19 SFac= 1.00D+00 NAtFMM=   60 NAOKFM=F Big=F
 Integral buffers will be    131072 words long.
 Raffenetti 2 integral format.
 Two-electron integral symmetry is turned on.
 One-electron integrals computed using PRISM.
 NBasis=   168 RedAO= T EigKep=  3.90D-04  NBF=   168
 NBsUse=   168 1.00D-06 EigRej= -1.00D+00 NBFU=   168
 Initial guess from the checkpoint file:  "BzmH.H2O.chk"
 B after Tr=     0.000000    0.000000    0.000000
         Rot=    0.999840    0.000019    0.000029    0.017863 Ang=   2.05 deg.
 ExpMin= 1.61D-01 ExpMax= 5.48D+03 ExpMxC= 8.25D+02 IAcc=2 IRadAn=         4 AccDes= 0.00D+00
 Harris functional with IExCor= 1009 and IRadAn=       4 diagonalized for initial guess.
 HarFok:  IExCor= 1009 AccDes= 0.00D+00 IRadAn=         4 IDoV= 1 UseB2=F ITyADJ=14
 ICtDFT=  3500011 ScaDFX=  1.000000  1.000000  1.000000  1.000000
 FoFCou: FMM=F IPFlag=           0 FMFlag=      100000 FMFlg1=           0
         NFxFlg=           0 DoJE=T BraDBF=F KetDBF=T FulRan=T
         wScrn=  0.000000 ICntrl=     500 IOpCl=  0 I1Cent=   200000004 NGrid=           0
         NMat0=    1 NMatS0=      1 NMatT0=    0 NMatD0=    1 NMtDS0=    0 NMtDT0=    0
 Petite list used in FoFCou.
 Keep J ints in memory in canonical form, NReq=103292152.
 Requested convergence on RMS density matrix=1.00D-08 within 128 cycles.
 Requested convergence on MAX density matrix=1.00D-06.
 Requested convergence on             energy=1.00D-06.
 No special actions if energy rises.
 Integral accuracy reduced to 1.0D-05 until final iterations.
 Initial convergence to 1.0D-05 achieved.  Increase integral accuracy.
 SCF Done:  E(RTPSS-TPSS) =  -456.758923057     A.U. after   15 cycles
            NFock= 15  Conv=0.25D-08     -V/T= 2.0083
 Calling FoFJK, ICntrl=      2527 FMM=F ISym2X=0 I1Cent= 0 IOpClX= 0 NMat=1 NMatS=1 NMatT=0.
 ***** Axes restored to original set *****
 -------------------------------------------------------------------
 Center     Atomic                   Forces (Hartrees/Bohr)
 Number     Number              X              Y              Z
 -------------------------------------------------------------------
      1        7           0.001180795    0.005449937   -0.000922848
      2        6           0.000865553   -0.000286438    0.001755746
      3        6          -0.001050338   -0.002319333   -0.000545653
      4        7          -0.000587969    0.000435453   -0.001379701
      5        6          -0.000043017    0.001474861   -0.000787434
      6        6          -0.000862517   -0.001615781   -0.000650672
      7        6          -0.000313183   -0.001330599    0.000151579
      8        6           0.000715471   -0.000288035    0.001472748
      9        6           0.000823192    0.000556998    0.001168913
     10        1           0.001469014   -0.002898812    0.004073307
     11        1          -0.001822224   -0.003286732   -0.001454084
     12        1           0.000864186   -0.004552193    0.004188344
     13        1           0.002893174    0.003862668    0.003085559
     14        1           0.000758052    0.005397992   -0.001697117
     15        1          -0.002058658    0.002042611   -0.004919325
     16        1          -0.002916433   -0.003378233   -0.003370462
     17        8          -0.001013213    0.000042077   -0.001730268
     18        1           0.001707097   -0.000027246    0.000134900
     19        1          -0.000608982    0.000720804    0.001426468
 -------------------------------------------------------------------
 Cartesian Forces:  Max     0.005449937 RMS     0.002217319

 GradGradGradGradGradGradGradGradGradGradGradGradGradGradGradGradGradGrad
 Berny optimization.
 Using GEDIIS/GDIIS optimizer.
 FormGI is forming the generalized inverse of G from B-inverse, IUseBI=4.
 GSVD:  received Info=                   1 from GESDD.
 Internal  Forces:  Max     0.006245176 RMS     0.001987797
 Search for a local minimum.
 Step number   3 out of a maximum of  106
 All quantities printed in internal units (Hartrees-Bohrs-Radians)
 Mixed Optimization -- RFO/linear search
 Update second derivatives using D2CorX and points    1    3    2
 DE=  6.63D-04 DEPred=-4.60D-04 R=-1.44D+00
 Trust test=-1.44D+00 RLast= 3.51D-01 DXMaxT set to 1.50D-01
 ITU= -1  0  0
 Use linear search instead of GDIIS.
 Energy rises -- skip Quadratic/GDIIS search.
 Quartic linear search produced a step of -0.75496.
 Iteration  1 RMS(Cart)=  0.09736004 RMS(Int)=  0.00686802
 Iteration  2 RMS(Cart)=  0.02563410 RMS(Int)=  0.00028348
 Iteration  3 RMS(Cart)=  0.00049642 RMS(Int)=  0.00003823
 Iteration  4 RMS(Cart)=  0.00000018 RMS(Int)=  0.00003823
 Variable       Old X    -DE/DX   Delta X   Delta X   Delta X     New X
                                 (Linear)    (Quad)   (Total)
    R1        2.63787   0.00284   0.00237   0.00000   0.00237   2.64023
    R2        2.51791   0.00419   0.00590   0.00000   0.00590   2.52381
    R3        1.97730   0.00303   0.00944   0.00000   0.00944   1.98674
    R4        2.65958   0.00513   0.00828   0.00000   0.00828   2.66786
    R5        2.64067   0.00420   0.00493   0.00000   0.00493   2.64561
    R6        2.64144   0.00218   0.00196   0.00000   0.00196   2.64340
    R7        2.63946   0.00398   0.00490   0.00000   0.00490   2.64436
    R8        2.53731   0.00440   0.00600   0.00000   0.00600   2.54331
    R9        1.91328   0.00402   0.00650   0.00000   0.00650   1.91979
   R10        2.02744   0.00625   0.01153   0.00000   0.01153   2.03898
   R11        2.62789   0.00435   0.00568   0.00000   0.00568   2.63358
   R12        2.03869   0.00571   0.01107   0.00000   0.01107   2.04975
   R13        2.66953   0.00375   0.00496   0.00000   0.00496   2.67450
   R14        2.03974   0.00571   0.01115   0.00000   0.01115   2.05089
   R15        2.62938   0.00433   0.00570   0.00000   0.00570   2.63508
   R16        2.03971   0.00571   0.01118   0.00000   0.01118   2.05089
   R17        2.03925   0.00559   0.01104   0.00000   0.01104   2.05028
   R18        3.19114   0.00020  -0.01865   0.00000  -0.01865   3.17249
   R19        1.84168   0.00165   0.00313   0.00000   0.00313   1.84480
   R20        1.84170   0.00165   0.00311   0.00000   0.00311   1.84481
    A1        1.90550  -0.00062  -0.00062   0.00000  -0.00062   1.90487
    A2        2.17161   0.00223   0.00287   0.00000   0.00287   2.17447
    A3        2.20608  -0.00161  -0.00224   0.00000  -0.00224   2.20384
    A4        1.86065   0.00026   0.00044   0.00000   0.00044   1.86109
    A5        2.29423   0.00023   0.00074   0.00000   0.00074   2.29497
    A6        2.12831  -0.00048  -0.00118   0.00000  -0.00118   2.12713
    A7        1.84199   0.00020  -0.00013   0.00000  -0.00013   1.84185
    A8        2.13023  -0.00009  -0.00066   0.00000  -0.00066   2.12958
    A9        2.31097  -0.00011   0.00079   0.00000   0.00079   2.31176
   A10        1.91042  -0.00031  -0.00007   0.00000  -0.00007   1.91036
   A11        2.20313  -0.00004  -0.00065   0.00000  -0.00065   2.20248
   A12        2.16963   0.00035   0.00071   0.00000   0.00071   2.17035
   A13        1.90622   0.00047   0.00038   0.00000   0.00038   1.90660
   A14        2.19408  -0.00033  -0.00029   0.00000  -0.00029   2.19379
   A15        2.18288  -0.00013  -0.00009   0.00000  -0.00009   2.18279
   A16        2.02518   0.00039   0.00144   0.00000   0.00144   2.02661
   A17        2.12103   0.00030   0.00014   0.00000   0.00014   2.12117
   A18        2.13698  -0.00069  -0.00158   0.00000  -0.00158   2.13540
[...]
 ! D42   D(7,8,9,16)           180.0006         -DE/DX =    0.0                 !
 ! D43   D(15,8,9,3)          -180.0005         -DE/DX =    0.0                 !
 ! D44   D(15,8,9,16)            0.0003         -DE/DX =    0.0                 !
 --------------------------------------------------------------------------------
 GradGradGradGradGradGradGradGradGradGradGradGradGradGradGradGradGradGrad

                          Input orientation:                          
 ---------------------------------------------------------------------
 Center     Atomic      Atomic             Coordinates (Angstroms)
 Number     Number       Type             X           Y           Z
 ---------------------------------------------------------------------
      1          7           0       -0.116558   -0.021499    1.002761
      2          6           0       -0.475621    0.761376   -0.098527
      3          6           0       -1.216147   -0.074598   -0.964265
      4          7           0       -1.262308   -1.322858   -0.332292
      5          6           0       -0.597823   -1.257447    0.837293
      6          6           0       -0.220372    2.104659   -0.405251
      7          6           0       -0.739828    2.567602   -1.614336
      8          6           0       -1.482116    1.728450   -2.481437
      9          6           0       -1.737771    0.390142   -2.178307
     10          1           0        0.442749    0.323441    1.820956
     11          1           0       -1.721100   -2.158660   -0.686417
     12          1           0       -0.476144   -2.079237    1.529611
     13          1           0        0.349952    2.742036    0.265198
     14          1           0       -0.571013    3.602829   -1.901386
     15          1           0       -1.864835    2.139753   -3.412535
     16          1           0       -2.307907   -0.249841   -2.846941
     17          8           0        1.343044    1.226537    2.938431
     18          1           0        2.298918    1.089056    3.083461
     19          1           0        0.987879    1.503259    3.804983
 ---------------------------------------------------------------------
                    Distance matrix (angstroms):
                    1          2          3          4          5
     1  N    0.000000
     2  C    1.398089   0.000000
     3  C    2.254131   1.413059   0.000000
     4  N    2.188298   2.239990   1.399883   0.000000
     5  C    1.336624   2.228528   2.242112   1.346756   0.000000
     6  C    2.552219   1.401300   2.460330   3.583131   3.604183
     7  C    3.733779   2.372749   2.762372   4.129443   4.545509
     8  C    4.131187   2.761616   2.371399   3.738665   4.550992
     9  C    3.594019   2.460960   1.400705   2.562851   3.620480
    10  H    1.049404   2.172465   3.266164   3.202186   2.132976
    11  H    3.161540   3.228536   2.162288   1.017083   2.096576
    12  H    2.154335   3.274128   3.284143   2.157973   1.081410
    13  H    2.898060   2.176437   3.449300   4.413586   4.149871
    14  H    4.666514   3.366490   3.849398   5.215586   5.578832
    15  H    5.217502   3.848700   3.364250   4.673394   5.586352
    16  H    4.435579   3.454506   2.183373   2.927132   4.184882
    17  O    2.726692   3.570298   4.844941   4.897439   3.788393
    18  H    3.375969   4.234440   5.485787   5.492452   4.352292
    19  H    3.375960   4.234336   5.485716   5.492479   4.352370
                    6          7          8          9         10
     6  C    0.000000
     7  C    1.395005   0.000000
     8  C    2.458471   1.416697   0.000000
     9  C    2.895824   2.460749   1.395821   0.000000
    10  H    2.927194   4.270361   4.918306   4.555570   0.000000
    11  H    4.528479   4.915433   4.288220   2.953372   4.138838
    12  H    4.616719   5.616676   5.621295   4.630139   2.588842
    13  H    1.086748   2.179609   3.453669   3.982550   2.877255
    14  H    2.146132   1.087470   2.163299   3.429193   5.063391
    15  H    3.427718   2.163842   1.087469   2.144902   6.001113
    16  H    3.982879   3.451981   2.174663   1.087063   5.448304
    17  O    3.794150   5.183098   6.132570   6.030919   1.695543
    18  H    4.421468   5.787000   6.758189   6.668548   2.371803
    19  H    4.421269   5.786779   6.758006   6.668429   2.371813
                   11         12         13         14         15
    11  H    0.000000
    12  H    2.543030   0.000000
    13  H    5.404780   5.052311   0.000000
    14  H    5.999467   6.638269   2.506636   0.000000
    15  H    5.092027   6.644783   4.335175   2.469441   0.000000
    16  H    2.942073   5.084904   5.069610   4.330582   2.495270
    17  O    5.829928   4.027699   3.229419   5.721382   7.173508
    18  H    6.396888   4.489264   3.804395   6.277281   7.787090
    19  H    6.396943   4.489427   3.804155   6.277020   7.786890
                   16         17         18         19
    16  H    0.000000
    17  O    6.998548   0.000000
    18  H    7.627919   0.976539   0.000000
    19  H    7.627821   0.976539   1.552734   0.000000
 Stoichiometry    C7H9N2O(1+)
 Framework group  C1[X(C7H9N2O)]
 Deg. of freedom    51
 Full point group                 C1      NOp   1
 Largest Abelian subgroup         C1      NOp   1
 Largest concise Abelian subgroup C1      NOp   1
                         Standard orientation:                         
 ---------------------------------------------------------------------
 Center     Atomic      Atomic             Coordinates (Angstroms)
 Number     Number       Type             X           Y           Z
 ---------------------------------------------------------------------
      1          7           0        1.305136    0.488766   -0.000015
      2          6           0        0.069981   -0.166250    0.000012
      3          6           0       -0.921348    0.840727   -0.000006
      4          7           0       -0.223731    2.054400    0.000015
      5          6           0        1.100597    1.809647    0.000002
      6          6           0       -0.258258   -1.528564    0.000027
      7          6           0       -1.619892   -1.831862    0.000014
      8          6           0       -2.612811   -0.821346   -0.000011
      9          6           0       -2.288569    0.536292   -0.000024
     10          1           0        2.235778    0.003837   -0.000018
     11          1           0       -0.636135    2.984122    0.000030
     12          1           0        1.872462    2.567058    0.000006
     13          1           0        0.509314   -2.297885    0.000045
     14          1           0       -1.930190   -2.874123    0.000021
     15          1           0       -3.660615   -1.112372   -0.000015
     16          1           0       -3.054118    1.308069   -0.000034
     17          8           0        3.512894   -1.111440   -0.000001
     18          1           0        4.086265   -1.260463    0.776314
     19          1           0        4.086052   -1.260753   -0.776419
 ---------------------------------------------------------------------
 Rotational constants (GHZ):      2.0480723      1.0220066      0.6840304

 **********************************************************************

            Population analysis using the SCF density.

 **********************************************************************

 Orbital symmetries:
       Occupied  (A) (A) (A) (A) (A) (A) (A) (A) (A) (A) (A) (A)
                 (A) (A) (A) (A) (A) (A) (A) (A) (A) (A) (A) (A)
                 (A) (A) (A) (A) (A) (A) (A) (A) (A) (A) (A) (A)
       Virtual   (A) (A) (A) (A) (A) (A) (A) (A) (A) (A) (A) (A)
                 (A) (A) (A) (A) (A) (A) (A) (A) (A) (A) (A) (A)
                 (A) (A) (A) (A) (A) (A) (A) (A) (A) (A) (A) (A)
                 (A) (A) (A) (A) (A) (A) (A) (A) (A) (A) (A) (A)
                 (A) (A) (A) (A) (A) (A) (A) (A) (A) (A) (A) (A)
                 (A) (A) (A) (A) (A) (A) (A) (A) (A) (A) (A) (A)
                 (A) (A) (A) (A) (A) (A) (A) (A) (A) (A) (A) (A)
                 (A) (A) (A) (A) (A) (A) (A) (A) (A) (A) (A) (A)
                 (A) (A) (A) (A) (A) (A) (A) (A) (A) (A) (A) (A)
                 (A) (A) (A) (A) (A) (A) (A) (A) (A) (A) (A) (A)
                 (A) (A) (A) (A) (A) (A) (A) (A) (A) (A) (A) (A)
 The electronic state is 1-A.
 Alpha  occ. eigenvalues --  -19.07673 -14.36237 -14.34708 -10.26344 -10.20347
 Alpha  occ. eigenvalues --  -10.19981 -10.15678 -10.15460 -10.14639 -10.14545
 Alpha  occ. eigenvalues --   -1.14559  -1.10346  -1.02312  -0.93953  -0.84979
 Alpha  occ. eigenvalues --   -0.84057  -0.78240  -0.74413  -0.72250  -0.66378
 Alpha  occ. eigenvalues --   -0.64126  -0.64056  -0.62226  -0.60896  -0.58286
 Alpha  occ. eigenvalues --   -0.54630  -0.54509  -0.53715  -0.50315  -0.47008
 Alpha  occ. eigenvalues --   -0.46172  -0.46077  -0.45860  -0.41770  -0.36574
 Alpha  occ. eigenvalues --   -0.36026
 Alpha virt. eigenvalues --   -0.21349  -0.15837  -0.15526  -0.10708  -0.08946
 Alpha virt. eigenvalues --   -0.05653  -0.04141  -0.02121  -0.01553  -0.01486
 Alpha virt. eigenvalues --    0.01015   0.02634   0.03947   0.04737   0.05329
 Alpha virt. eigenvalues --    0.09578   0.11982   0.14676   0.15562   0.18411
 Alpha virt. eigenvalues --    0.20552   0.32259   0.32506   0.32775   0.33669
 Alpha virt. eigenvalues --    0.36268   0.37080   0.39745   0.39944   0.40143
 Alpha virt. eigenvalues --    0.42110   0.42693   0.44271   0.44813   0.45220
 Alpha virt. eigenvalues --    0.46364   0.49452   0.51582   0.54977   0.57676
 Alpha virt. eigenvalues --    0.60708   0.62169   0.63361   0.64830   0.64974
 Alpha virt. eigenvalues --    0.65326   0.66504   0.68261   0.70237   0.71691
 Alpha virt. eigenvalues --    0.74275   0.76803   0.78226   0.79280   0.80799
 Alpha virt. eigenvalues --    0.82051   0.86904   0.89201   0.91405   0.93372
 Alpha virt. eigenvalues --    0.95752   0.97307   1.01740   1.05388   1.07474
 Alpha virt. eigenvalues --    1.09923   1.11472   1.14301   1.17541   1.18944
 Alpha virt. eigenvalues --    1.22814   1.23587   1.26878   1.27565   1.29956
 Alpha virt. eigenvalues --    1.30785   1.35723   1.40663   1.49722   1.53001
 Alpha virt. eigenvalues --    1.53283   1.53992   1.60101   1.62398   1.63190
 Alpha virt. eigenvalues --    1.68173   1.72932   1.75370   1.79722   1.79859
 Alpha virt. eigenvalues --    1.82605   1.83052   1.84849   1.94489   1.96113
 Alpha virt. eigenvalues --    1.96481   1.99814   2.02813   2.03589   2.05319
 Alpha virt. eigenvalues --    2.06695   2.07842   2.09655   2.18863   2.19815
 Alpha virt. eigenvalues --    2.23709   2.36018   2.36088   2.37510   2.38875
 Alpha virt. eigenvalues --    2.42790   2.47034   2.47993   2.50554   2.54056
 Alpha virt. eigenvalues --    2.58810   2.64880   2.69249   2.78009   2.89878
 Alpha virt. eigenvalues --    3.02527   3.25304   3.52681   3.80874   3.86086
 Alpha virt. eigenvalues --    3.91656   3.96179   4.02418   4.06425   4.22611
 Alpha virt. eigenvalues --    4.24630   4.58019
          Condensed to atoms (all electrons):
               1          2          3          4          5          6
     1  N    7.018308   0.257742  -0.031334  -0.077607   0.414090  -0.072415
     2  C    0.257742   4.648872   0.512418  -0.025773  -0.087754   0.514870
     3  C   -0.031334   0.512418   4.675624   0.220845  -0.080910  -0.052203
     4  N   -0.077607  -0.025773   0.220845   6.937389   0.393834   0.010058
     5  C    0.414090  -0.087754  -0.080910   0.393834   4.708630   0.006008
     6  C   -0.072415   0.514870  -0.052203   0.010058   0.006008   4.995264
     7  C    0.005375  -0.008488  -0.036813  -0.000292  -0.000088   0.513309
     8  C   -0.000277  -0.036969  -0.006450   0.005325  -0.000051  -0.032897
     9  C    0.010018  -0.048183   0.516408  -0.078498   0.004749  -0.044854
    10  H    0.222413  -0.009492   0.003693   0.002306  -0.022296  -0.002998
    11  H    0.003419   0.005113  -0.018432   0.317993  -0.028624  -0.000102
    12  H   -0.032062   0.002396   0.002741  -0.034575   0.374271  -0.000112
    13  H   -0.003961  -0.039613   0.004011  -0.000109  -0.000028   0.356874
    14  H   -0.000097   0.002075   0.000884   0.000003   0.000003  -0.033356
    15  H    0.000003   0.000880   0.002054  -0.000096   0.000003   0.003637
    16  H   -0.000098   0.003514  -0.040126  -0.004765  -0.000113   0.000283
    17  O   -0.042215  -0.000379  -0.000004  -0.000008   0.000448   0.000295
    18  H    0.002031  -0.000006   0.000001   0.000001  -0.000051  -0.000006
    19  H    0.002031  -0.000006   0.000001   0.000001  -0.000051  -0.000006
               7          8          9         10         11         12
     1  N    0.005375  -0.000277   0.010018   0.222413   0.003419  -0.032062
     2  C   -0.008488  -0.036969  -0.048183  -0.009492   0.005113   0.002396
     3  C   -0.036813  -0.006450   0.516408   0.003693  -0.018432   0.002741
     4  N   -0.000292   0.005325  -0.078498   0.002306   0.317993  -0.034575
     5  C   -0.000088  -0.000051   0.004749  -0.022296  -0.028624   0.374271
     6  C    0.513309  -0.032897  -0.044854  -0.002998  -0.000102  -0.000112
     7  C    4.892662   0.514015  -0.033791  -0.000001   0.000004   0.000003
     8  C    0.514015   4.882043   0.519664  -0.000001  -0.000042   0.000002
     9  C   -0.033791   0.519664   4.986252  -0.000061  -0.002394  -0.000090
    10  H   -0.000001  -0.000001  -0.000061   0.285909   0.000005   0.000020
    11  H    0.000004  -0.000042  -0.002394   0.000005   0.326349  -0.000693
    12  H    0.000003   0.000002  -0.000090   0.000020  -0.000693   0.423325
    13  H   -0.030672   0.003698   0.000261   0.000973   0.000003   0.000000
    14  H    0.364486  -0.032837   0.003766  -0.000002   0.000000   0.000000
    15  H   -0.032642   0.364977  -0.033543   0.000000  -0.000001   0.000000
    16  H    0.003677  -0.030017   0.360882   0.000002   0.001688   0.000000
    17  O    0.000021   0.000000   0.000000   0.089538   0.000000   0.000044
    18  H   -0.000001   0.000000   0.000000  -0.004288   0.000000  -0.000003
    19  H   -0.000001   0.000000   0.000000  -0.004288   0.000000  -0.000003
              13         14         15         16         17         18
     1  N   -0.003961  -0.000097   0.000003  -0.000098  -0.042215   0.002031
     2  C   -0.039613   0.002075   0.000880   0.003514  -0.000379  -0.000006
     3  C    0.004011   0.000884   0.002054  -0.040126  -0.000004   0.000001
     4  N   -0.000109   0.000003  -0.000096  -0.004765  -0.000008   0.000001
     5  C   -0.000028   0.000003   0.000003  -0.000113   0.000448  -0.000051
     6  C    0.356874  -0.033356   0.003637   0.000283   0.000295  -0.000006
     7  C   -0.030672   0.364486  -0.032642   0.003677   0.000021  -0.000001
     8  C    0.003698  -0.032837   0.364977  -0.030017   0.000000   0.000000
     9  C    0.000261   0.003766  -0.033543   0.360882   0.000000   0.000000
    10  H    0.000973  -0.000002   0.000000   0.000002   0.089538  -0.004288
    11  H    0.000003   0.000000  -0.000001   0.001688   0.000000   0.000000
    12  H    0.000000   0.000000   0.000000   0.000000   0.000044  -0.000003
    13  H    0.502783  -0.003672  -0.000121   0.000011   0.003056  -0.000039
    14  H   -0.003672   0.500091  -0.003796  -0.000127   0.000000   0.000000
    15  H   -0.000121  -0.003796   0.498462  -0.003683   0.000000   0.000000
    16  H    0.000011  -0.000127  -0.003683   0.505948   0.000000   0.000000
    17  O    0.003056   0.000000   0.000000   0.000000   8.224420   0.250271
    18  H   -0.000039   0.000000   0.000000   0.000000   0.250271   0.333363
    19  H   -0.000039   0.000000   0.000000   0.000000   0.250271  -0.016804
              19
     1  N    0.002031
     2  C   -0.000006
     3  C    0.000001
     4  N    0.000001
     5  C   -0.000051
     6  C   -0.000006
     7  C   -0.000001
     8  C    0.000000
     9  C    0.000000
    10  H   -0.004288
    11  H    0.000000
    12  H   -0.000003
    13  H   -0.000039
    14  H    0.000000
    15  H    0.000000
    16  H    0.000000
    17  O    0.250271
    18  H   -0.016804
    19  H    0.333362
 Mulliken charges:
               1
     1  N   -0.675364
     2  C    0.308781
     3  C    0.327591
     4  N   -0.666032
     5  C    0.317928
     6  C   -0.161649
     7  C   -0.150763
     8  C   -0.150184
     9  C   -0.160586
    10  H    0.438566
    11  H    0.395713
    12  H    0.264736
    13  H    0.206585
    14  H    0.202580
    15  H    0.203867
    16  H    0.202925
    17  O   -0.775758
    18  H    0.435532
    19  H    0.435532
 Sum of Mulliken charges =   1.00000
 Mulliken charges with hydrogens summed into heavy atoms:
               1
     1  N   -0.236798
     2  C    0.308781
     3  C    0.327591
     4  N   -0.270319
     5  C    0.582664
     6  C    0.044936
     7  C    0.051817
     8  C    0.053683
     9  C    0.042340
    17  O    0.095306
 Electronic spatial extent (au):  <R**2>=           1583.1718
 Charge=              1.0000 electrons
 Dipole moment (field-independent basis, Debye):
    X=              4.5979    Y=              2.8205    Z=             -0.0001  Tot=              5.3941
 Quadrupole moment (field-independent basis, Debye-Ang):
   XX=            -12.9935   YY=            -30.4361   ZZ=            -57.1996
   XY=             -4.1576   XZ=             -0.0004   YZ=              0.0009
 Traceless Quadrupole moment (field-independent basis, Debye-Ang):
   XX=             20.5496   YY=              3.1069   ZZ=            -23.6566
   XY=             -4.1576   XZ=             -0.0004   YZ=              0.0009
 Octapole moment (field-independent basis, Debye-Ang**2):
  XXX=            123.9270  YYY=             35.9615  ZZZ=             -0.0005  XYY=             10.0912
  XXY=            -31.5499  XXZ=             -0.0004  XZZ=             21.9124  YZZ=             -2.2713
  YYZ=             -0.0012  XYZ=              0.0030
 Hexadecapole moment (field-independent basis, Debye-Ang**3):
 XXXX=           -505.9347 YYYY=           -462.3514 ZZZZ=            -56.9120 XXXY=           -168.7932
 XXXZ=              0.0063 YYYX=            -11.5377 YYYZ=              0.0046 ZZZX=             -0.0018
 ZZZY=              0.0016 XXYY=           -209.5408 XXZZ=           -184.4193 YYZZ=           -125.2980
 XXYZ=              0.0099 YYXZ=             -0.0069 ZZXY=            -23.3726
 N-N= 5.012117160305D+02 E-N=-2.052962695160D+03  KE= 4.528027984240D+02
 1\1\GINC-NID00514\FOpt\RTPSSTPSS\6-31G(d)\C7H9N2O1(1+)\PARKSJM\28-Oct-
 2015\0\\# tpsstpss/6-31G(d) opt integral=ultrafine scf=tight\\BzmH.H2O
 \\1,1\N,-0.1165578432,-0.021498522,1.0027612366\C,-0.4756207274,0.7613
 759597,-0.0985266756\C,-1.2161470437,-0.0745983208,-0.9642647481\N,-1.
 2623081024,-1.3228581167,-0.3322924489\C,-0.5978226582,-1.2574466081,0
 .8372934756\C,-0.2203718866,2.1046587541,-0.4052508975\C,-0.7398280149
 ,2.5676023028,-1.6143360491\C,-1.4821157895,1.7284502117,-2.4814366554
 \C,-1.7377706984,0.3901421839,-2.1783072526\H,0.4427485934,0.323440607
 4,1.8209561015\H,-1.7211000939,-2.158659707,-0.6864165373\H,-0.4761436
 317,-2.0792366456,1.5296108443\H,0.3499516045,2.7420361124,0.265197953
 1\H,-0.571012514,3.6028290861,-1.9013860874\H,-1.8648345684,2.1397533,
 -3.4125350976\H,-2.3079072977,-0.2498410215,-2.8469407549\O,1.34304432
 89,1.2265371631,2.9384311374\H,2.2989177802,1.0890555349,3.0834608838\
 H,0.9878785629,1.5032587256,3.8049825721\\Version=AS64L-G09RevD.01\Sta
 te=1-A\HF=-456.7597395\RMSD=9.021e-09\RMSF=1.446e-05\Dipole=0.481486,-
 1.2902157,1.6147003\Quadrupole=-8.4663468,0.3549947,8.111352,4.9450743
 ,13.7347935,-1.3059767\PG=C01 [X(C7H9N2O1)]\\@


 LENDING MONEY TO FRIENDS CAUSES THEM TO LOSE THEIR MEMORIES.

    --  PETER'S THEORY OF RECIPROCAL INHIBITION OF FISCAL RECALL
 Job cpu time:       0 days  0 hours  1 minutes 56.8 seconds.
 File lengths (MBytes):  RWF=     16 Int=      0 D2E=      0 Chk=      3 Scr=      1
 Normal termination of Gaussian 09 at Wed Oct 28 19:32:12 2015.
