 Entering GApplication 60298262 resources: utime ~4133s, stime ~120s, Rss ~2111624, inblocks ~1247100, outblocks ~387978
global/homes/p/parksjm/tpss/BzmH.H2O/BzmH.H2O.tpss.631gs.freq.log
 Initial command:
 /usr/common/usg/g09/d1/g09/l1.exe "/scratch/scratchdirs/parksjm/g09/13504653.hopque01/Gau-32078.inp" -scrdir="/scratch/scratchdirs/parksjm/g09/13504653.hopque01/"
 Entering Link 1 = /usr/common/usg/g09/d1/g09/l1.exe PID=     32079.
  
 Copyright (c) 1988,1990,1992,1993,1995,1998,2003,2009,2013,
            Gaussian, Inc.  All Rights Reserved.
  
 This is part of the Gaussian(R) 09 program.  It is based on
 the Gaussian(R) 03 system (copyright 2003, Gaussian, Inc.),
 the Gaussian(R) 98 system (copyright 1998, Gaussian, Inc.),
 the Gaussian(R) 94 system (copyright 1995, Gaussian, Inc.),
 the Gaussian 92(TM) system (copyright 1992, Gaussian, Inc.),
 the Gaussian 90(TM) system (copyright 1990, Gaussian, Inc.),
 the Gaussian 88(TM) system (copyright 1988, Gaussian, Inc.),
 the Gaussian 86(TM) system (copyright 1986, Carnegie Mellon
 University), and the Gaussian 82(TM) system (copyright 1983,
 Carnegie Mellon University). Gaussian is a federally registered
 trademark of Gaussian, Inc.
  
 This software contains proprietary and confidential information,
 including trade secrets, belonging to Gaussian, Inc.
  
 This software is provided under written license and may be
 used, copied, transmitted, or stored only in accord with that
 written license.
  
 The following legend is applicable only to US Government
 contracts under FAR:
  
                    RESTRICTED RIGHTS LEGEND
  
 Use, reproduction and disclosure by the US Government is
 subject to restrictions as set forth in subparagraphs (a)
 and (c) of the Commercial Computer Software - Restricted
 Rights clause in FAR 52.227-19.
  
 Gaussian, Inc.
 340 Quinnipiac St., Bldg. 40, Wallingford CT 06492
  
  
 ---------------------------------------------------------------
 Warning -- This program may not be used in any manner that
 competes with the business of Gaussian, Inc. or will provide
 assistance to any competitor of Gaussian, Inc.  The licensee
 of this program is prohibited from giving any competitor of
 Gaussian, Inc. access to this program.  By using this program,
 the user acknowledges that Gaussian, Inc. is engaged in the
 business of creating and licensing software in the field of
 computational chemistry and represents and warrants to the
 licensee that it is not a competitor of Gaussian, Inc. and that
 it will not use this program in any manner prohibited above.
 ---------------------------------------------------------------
  

 Cite this work as:
 Gaussian 09, Revision D.01,
 M. J. Frisch, G. W. Trucks, H. B. Schlegel, G. E. Scuseria, 
 M. A. Robb, J. R. Cheeseman, G. Scalmani, V. Barone, B. Mennucci, 
 G. A. Petersson, H. Nakatsuji, M. Caricato, X. Li, H. P. Hratchian, 
 A. F. Izmaylov, J. Bloino, G. Zheng, J. L. Sonnenberg, M. Hada, 
 M. Ehara, K. Toyota, R. Fukuda, J. Hasegawa, M. Ishida, T. Nakajima, 
 Y. Honda, O. Kitao, H. Nakai, T. Vreven, J. A. Montgomery, Jr., 
 J. E. Peralta, F. Ogliaro, M. Bearpark, J. J. Heyd, E. Brothers, 
 K. N. Kudin, V. N. Staroverov, T. Keith, R. Kobayashi, J. Normand, 
 K. Raghavachari, A. Rendell, J. C. Burant, S. S. Iyengar, J. Tomasi, 
 M. Cossi, N. Rega, J. M. Millam, M. Klene, J. E. Knox, J. B. Cross, 
 V. Bakken, C. Adamo, J. Jaramillo, R. Gomperts, R. E. Stratmann, 
 O. Yazyev, A. J. Austin, R. Cammi, C. Pomelli, J. W. Ochterski, 
 R. L. Martin, K. Morokuma, V. G. Zakrzewski, G. A. Voth, 
 P. Salvador, J. J. Dannenberg, S. Dapprich, A. D. Daniels, 
 O. Farkas, J. B. Foresman, J. V. Ortiz, J. Cioslowski, 
 and D. J. Fox, Gaussian, Inc., Wallingford CT, 2013.
 
 ******************************************
 Gaussian 09:  AS64L-G09RevD.01 24-Apr-2013
                29-Oct-2015 
 ******************************************
 %nproc=24
 Will use up to   24 processors via shared memory.
 %chk=BzmH.H2O.chk
 %mem=7000mb
 -----------------------------------------------------
 # tpsstpss/6-31G(d) freq integral=ultrafine scf=tight
 -----------------------------------------------------
 1/10=4,30=1,38=1/1,3;
 2/12=2,17=6,18=5,40=1/2;
 3/5=1,6=6,7=1,11=2,16=1,25=1,30=1,71=2,74=2523,75=-5,140=1/1,2,3;
 4//1;
 5/5=2,32=2,38=5,98=1/2;
 8/6=4,10=90,11=11/1;
 11/6=1,8=1,9=11,15=111,16=1/1,2,10;
 10/6=1/2;
 6/7=2,8=2,9=2,10=2,18=1,28=1/1;
 7/8=1,10=1,25=1/1,2,3,16;
 1/10=4,30=1/3;
 99//99;
 --------
 BzmH.H2O
 --------
 Symbolic Z-matrix:
 Charge =  1 Multiplicity = 1
 N                     1.30514   0.48877  -0.00002 
 C                     0.06998  -0.16625   0.00001 
 C                    -0.92135   0.84073  -0.00001 
 N                    -0.22373   2.0544    0.00002 
 C                     1.1006    1.80965   0. 
 C                    -0.25826  -1.52856   0.00003 
 C                    -1.61989  -1.83186   0.00001 
 C                    -2.61281  -0.82135  -0.00001 
 C                    -2.28857   0.53629  -0.00002 
 H                     2.23578   0.00384  -0.00002 
 H                    -0.63614   2.98412   0.00003 
 H                     1.87246   2.56706   0.00001 
 H                     0.50931  -2.29788   0.00005 
 H                    -1.93019  -2.87412   0.00002 
 H                    -3.66062  -1.11237  -0.00002 
 H                    -3.05412   1.30807  -0.00003 
 O                     3.51289  -1.11144  0. 
 H                     4.08627  -1.26046   0.77631 
 H                     4.08605  -1.26075  -0.77642 
 

 GradGradGradGradGradGradGradGradGradGradGradGradGradGradGradGradGradGrad
 Berny optimization.
 Initialization pass.
 Trust Radius=3.00D-01 FncErr=1.00D-07 GrdErr=1.00D-07
 Number of steps in this run=      2 maximum allowed number of steps=      2.
 GradGradGradGradGradGradGradGradGradGradGradGradGradGradGradGradGradGrad

                          Input orientation:                          
 ---------------------------------------------------------------------
 Center     Atomic      Atomic             Coordinates (Angstroms)
 Number     Number       Type             X           Y           Z
 ---------------------------------------------------------------------
      1          7           0        1.305136    0.488766   -0.000015
      2          6           0        0.069981   -0.166250    0.000012
      3          6           0       -0.921348    0.840727   -0.000006
      4          7           0       -0.223731    2.054400    0.000015
      5          6           0        1.100597    1.809647    0.000002
      6          6           0       -0.258258   -1.528564    0.000027
      7          6           0       -1.619892   -1.831862    0.000014
      8          6           0       -2.612811   -0.821346   -0.000011
      9          6           0       -2.288569    0.536292   -0.000024
     10          1           0        2.235778    0.003837   -0.000018
     11          1           0       -0.636135    2.984122    0.000030
     12          1           0        1.872462    2.567058    0.000006
     13          1           0        0.509314   -2.297885    0.000045
     14          1           0       -1.930190   -2.874123    0.000021
     15          1           0       -3.660615   -1.112372   -0.000015
     16          1           0       -3.054118    1.308069   -0.000034
     17          8           0        3.512894   -1.111440   -0.000001
     18          1           0        4.086265   -1.260463    0.776314
     19          1           0        4.086052   -1.260753   -0.776419
 ---------------------------------------------------------------------
                    Distance matrix (angstroms):
                    1          2          3          4          5
     1  N    0.000000
     2  C    1.398089   0.000000
     3  C    2.254131   1.413059   0.000000
     4  N    2.188297   2.239990   1.399883   0.000000
     5  C    1.336624   2.228528   2.242112   1.346755   0.000000
     6  C    2.552219   1.401299   2.460331   3.583130   3.604184
     7  C    3.733779   2.372748   2.762371   4.129443   4.545509
     8  C    4.131187   2.761616   2.371399   3.738665   4.550991
     9  C    3.594019   2.460960   1.400705   2.562852   3.620481
    10  H    1.049405   2.172465   3.266164   3.202186   2.132976
    11  H    3.161540   3.228536   2.162288   1.017084   2.096576
    12  H    2.154334   3.274127   3.284143   2.157972   1.081410
    13  H    2.898061   2.176438   3.449301   4.413586   4.149872
    14  H    4.666514   3.366491   3.849399   5.215586   5.578832
    15  H    5.217502   3.848700   3.364250   4.673395   5.586353
    16  H    4.435578   3.454506   2.183373   2.927132   4.184882
    17  O    2.726693   3.570299   4.844941   4.897439   3.788394
    18  H    3.375969   4.234440   5.485787   5.492451   4.352292
    19  H    3.375961   4.234337   5.485717   5.492478   4.352370
                    6          7          8          9         10
     6  C    0.000000
     7  C    1.395004   0.000000
     8  C    2.458470   1.416697   0.000000
     9  C    2.895823   2.460748   1.395820   0.000000
    10  H    2.927195   4.270361   4.918307   4.555571   0.000000
    11  H    4.528479   4.915433   4.288220   2.953373   4.138838
    12  H    4.616718   5.616675   5.621295   4.630139   2.588842
    13  H    1.086748   2.179609   3.453669   3.982551   2.877256
    14  H    2.146133   1.087471   2.163300   3.429193   5.063392
    15  H    3.427718   2.163843   1.087469   2.144902   6.001114
    16  H    3.982878   3.451981   2.174663   1.087063   5.448304
    17  O    3.794151   5.183098   6.132570   6.030920   1.695544
    18  H    4.421468   5.787000   6.758189   6.668548   2.371803
    19  H    4.421269   5.786779   6.758007   6.668430   2.371814
                   11         12         13         14         15
    11  H    0.000000
    12  H    2.543030   0.000000
    13  H    5.404780   5.052311   0.000000
    14  H    5.999468   6.638269   2.506637   0.000000
    15  H    5.092027   6.644783   4.335176   2.469441   0.000000
    16  H    2.942073   5.084904   5.069611   4.330582   2.495270
    17  O    5.829929   4.027700   3.229419   5.721382   7.173509
    18  H    6.396888   4.489264   3.804394   6.277281   7.787090
    19  H    6.396944   4.489427   3.804155   6.277021   7.786891
                   16         17         18         19
    16  H    0.000000
    17  O    6.998548   0.000000
    18  H    7.627919   0.976538   0.000000
    19  H    7.627821   0.976539   1.552733   0.000000
 Stoichiometry    C7H9N2O(1+)
 Framework group  C1[X(C7H9N2O)]
 Deg. of freedom    51
 Full point group                 C1      NOp   1
 Largest Abelian subgroup         C1      NOp   1
 Largest concise Abelian subgroup C1      NOp   1
                         Standard orientation:                         
 ---------------------------------------------------------------------
 Center     Atomic      Atomic             Coordinates (Angstroms)
 Number     Number       Type             X           Y           Z
 ---------------------------------------------------------------------
      1          7           0       -1.305136    0.488766    0.000015
      2          6           0       -0.069981   -0.166250   -0.000012
      3          6           0        0.921348    0.840727    0.000006
      4          7           0        0.223731    2.054400   -0.000015
      5          6           0       -1.100597    1.809647   -0.000002
      6          6           0        0.258258   -1.528564   -0.000027
      7          6           0        1.619892   -1.831862   -0.000014
      8          6           0        2.612811   -0.821346    0.000011
      9          6           0        2.288569    0.536292    0.000024
     10          1           0       -2.235778    0.003837    0.000018
     11          1           0        0.636135    2.984122   -0.000030
     12          1           0       -1.872462    2.567058   -0.000006
     13          1           0       -0.509314   -2.297885   -0.000045
     14          1           0        1.930190   -2.874123   -0.000021
     15          1           0        3.660615   -1.112372    0.000015
     16          1           0        3.054118    1.308069    0.000034
     17          8           0       -3.512894   -1.111440    0.000001
     18          1           0       -4.086265   -1.260463   -0.776314
     19          1           0       -4.086052   -1.260753    0.776419
 ---------------------------------------------------------------------
 Rotational constants (GHZ):      2.0480723      1.0220066      0.6840304
 Standard basis: 6-31G(d) (6D, 7F)
 There are   168 symmetry adapted cartesian basis functions of A   symmetry.
 There are   168 symmetry adapted basis functions of A   symmetry.
   168 basis functions,   316 primitive gaussians,   168 cartesian basis functions
    36 alpha electrons       36 beta electrons
       nuclear repulsion energy       501.2117326276 Hartrees.
 NAtoms=   19 NActive=   19 NUniq=   19 SFac= 1.00D+00 NAtFMM=   60 NAOKFM=F Big=F
 Integral buffers will be    131072 words long.
 Raffenetti 2 integral format.
 Two-electron integral symmetry is turned on.
 One-electron integrals computed using PRISM.
 NBasis=   168 RedAO= T EigKep=  4.02D-04  NBF=   168
 NBsUse=   168 1.00D-06 EigRej= -1.00D+00 NBFU=   168
 ExpMin= 1.61D-01 ExpMax= 5.48D+03 ExpMxC= 8.25D+02 IAcc=3 IRadAn=         5 AccDes= 0.00D+00
 Harris functional with IExCor= 1009 and IRadAn=       5 diagonalized for initial guess.
 HarFok:  IExCor= 1009 AccDes= 0.00D+00 IRadAn=         5 IDoV= 1 UseB2=F ITyADJ=14
 ICtDFT=  3500011 ScaDFX=  1.000000  1.000000  1.000000  1.000000
 FoFCou: FMM=F IPFlag=           0 FMFlag=      100000 FMFlg1=           0
         NFxFlg=           0 DoJE=T BraDBF=F KetDBF=T FulRan=T
         wScrn=  0.000000 ICntrl=     500 IOpCl=  0 I1Cent=   200000004 NGrid=           0
         NMat0=    1 NMatS0=      1 NMatT0=    0 NMatD0=    1 NMtDS0=    0 NMtDT0=    0
 Petite list used in FoFCou.
 Keep J ints in memory in canonical form, NReq=103292152.
 Requested convergence on RMS density matrix=1.00D-08 within 128 cycles.
 Requested convergence on MAX density matrix=1.00D-06.
 Requested convergence on             energy=1.00D-06.
 No special actions if energy rises.
 Integral accuracy reduced to 1.0D-05 until final iterations.
 Initial convergence to 1.0D-05 achieved.  Increase integral accuracy.
 SCF Done:  E(RTPSS-TPSS) =  -456.759739536     A.U. after   16 cycles
            NFock= 16  Conv=0.58D-08     -V/T= 2.0087
 Range of M.O.s used for correlation:     1   168
 NBasis=   168 NAE=    36 NBE=    36 NFC=     0 NFV=     0
 NROrb=    168 NOA=    36 NOB=    36 NVA=   132 NVB=   132
 Symmetrizing basis deriv contribution to polar:
 IMax=3 JMax=2 DiffMx= 0.00D+00
 G2DrvN: will do    20 centers at a time, making    1 passes.
 Calling FoFCou, ICntrl=  3507 FMM=F I1Cent=   0 AccDes= 0.00D+00.
 End of G2Drv F.D. properties file   721 does not exist.
 End of G2Drv F.D. properties file   722 does not exist.
 End of G2Drv F.D. properties file   788 does not exist.
          IDoAtm=1111111111111111111
          Differentiating once with respect to electric field.
                with respect to dipole field.
          Differentiating once with respect to nuclear coordinates.
 Keep J ints in memory in canonical form, NReq=103191233.
          There are    60 degrees of freedom in the 1st order CPHF.  IDoFFX=6 NUNeed=     3.
     57 vectors produced by pass  0 Test12= 7.92D-15 1.67D-09 XBig12= 2.29D+02 9.42D+00.
 AX will form    57 AO Fock derivatives at one time.
     57 vectors produced by pass  1 Test12= 7.92D-15 1.67D-09 XBig12= 4.59D+01 1.30D+00.
     57 vectors produced by pass  2 Test12= 7.92D-15 1.67D-09 XBig12= 3.22D-01 9.67D-02.
     57 vectors produced by pass  3 Test12= 7.92D-15 1.67D-09 XBig12= 3.80D-04 2.71D-03.
     55 vectors produced by pass  4 Test12= 7.92D-15 1.67D-09 XBig12= 6.13D-08 2.58D-05.
     17 vectors produced by pass  5 Test12= 7.92D-15 1.67D-09 XBig12= 1.78D-11 5.38D-07.
      2 vectors produced by pass  6 Test12= 7.92D-15 1.67D-09 XBig12= 3.92D-15 5.98D-09.
 InvSVY:  IOpt=1 It=  1 EMax= 5.33D-15
 Solved reduced A of dimension   302 with    60 vectors.
 Isotropic polarizability for W=    0.000000       84.80 Bohr**3.
 End of Minotr F.D. properties file   721 does not exist.
 End of Minotr F.D. properties file   722 does not exist.
 End of Minotr F.D. properties file   788 does not exist.

 **********************************************************************

            Population analysis using the SCF density.

 **********************************************************************

 Orbital symmetries:
       Occupied  (A) (A) (A) (A) (A) (A) (A) (A) (A) (A) (A) (A)
                 (A) (A) (A) (A) (A) (A) (A) (A) (A) (A) (A) (A)
                 (A) (A) (A) (A) (A) (A) (A) (A) (A) (A) (A) (A)
       Virtual   (A) (A) (A) (A) (A) (A) (A) (A) (A) (A) (A) (A)
                 (A) (A) (A) (A) (A) (A) (A) (A) (A) (A) (A) (A)
                 (A) (A) (A) (A) (A) (A) (A) (A) (A) (A) (A) (A)
                 (A) (A) (A) (A) (A) (A) (A) (A) (A) (A) (A) (A)
                 (A) (A) (A) (A) (A) (A) (A) (A) (A) (A) (A) (A)
                 (A) (A) (A) (A) (A) (A) (A) (A) (A) (A) (A) (A)
                 (A) (A) (A) (A) (A) (A) (A) (A) (A) (A) (A) (A)
                 (A) (A) (A) (A) (A) (A) (A) (A) (A) (A) (A) (A)
                 (A) (A) (A) (A) (A) (A) (A) (A) (A) (A) (A) (A)
                 (A) (A) (A) (A) (A) (A) (A) (A) (A) (A) (A) (A)
                 (A) (A) (A) (A) (A) (A) (A) (A) (A) (A) (A) (A)
 The electronic state is 1-A.
 Alpha  occ. eigenvalues --  -19.07673 -14.36237 -14.34708 -10.26344 -10.20347
 Alpha  occ. eigenvalues --  -10.19981 -10.15678 -10.15460 -10.14639 -10.14545
 Alpha  occ. eigenvalues --   -1.14559  -1.10346  -1.02312  -0.93953  -0.84979
 Alpha  occ. eigenvalues --   -0.84057  -0.78239  -0.74413  -0.72250  -0.66378
 Alpha  occ. eigenvalues --   -0.64126  -0.64056  -0.62226  -0.60896  -0.58286
 Alpha  occ. eigenvalues --   -0.54630  -0.54509  -0.53715  -0.50315  -0.47008
 Alpha  occ. eigenvalues --   -0.46172  -0.46077  -0.45860  -0.41770  -0.36574
 Alpha  occ. eigenvalues --   -0.36026
 Alpha virt. eigenvalues --   -0.21349  -0.15837  -0.15526  -0.10708  -0.08946
 Alpha virt. eigenvalues --   -0.05653  -0.04141  -0.02121  -0.01553  -0.01486
 Alpha virt. eigenvalues --    0.01015   0.02634   0.03947   0.04737   0.05329
 Alpha virt. eigenvalues --    0.09578   0.11982   0.14676   0.15562   0.18411
 Alpha virt. eigenvalues --    0.20552   0.32259   0.32506   0.32776   0.33669
 Alpha virt. eigenvalues --    0.36268   0.37080   0.39745   0.39944   0.40143
 Alpha virt. eigenvalues --    0.42110   0.42693   0.44271   0.44813   0.45220
 Alpha virt. eigenvalues --    0.46364   0.49452   0.51582   0.54977   0.57676
 Alpha virt. eigenvalues --    0.60708   0.62169   0.63361   0.64830   0.64974
 Alpha virt. eigenvalues --    0.65326   0.66504   0.68261   0.70237   0.71691
 Alpha virt. eigenvalues --    0.74275   0.76803   0.78226   0.79280   0.80799
 Alpha virt. eigenvalues --    0.82051   0.86904   0.89201   0.91405   0.93372
 Alpha virt. eigenvalues --    0.95752   0.97307   1.01740   1.05388   1.07474
 Alpha virt. eigenvalues --    1.09923   1.11472   1.14301   1.17541   1.18944
 Alpha virt. eigenvalues --    1.22814   1.23587   1.26878   1.27565   1.29956
 Alpha virt. eigenvalues --    1.30785   1.35723   1.40663   1.49722   1.53001
 Alpha virt. eigenvalues --    1.53283   1.53992   1.60101   1.62398   1.63190
 Alpha virt. eigenvalues --    1.68173   1.72932   1.75370   1.79722   1.79859
 Alpha virt. eigenvalues --    1.82605   1.83052   1.84849   1.94489   1.96113
 Alpha virt. eigenvalues --    1.96481   1.99814   2.02813   2.03589   2.05319
 Alpha virt. eigenvalues --    2.06695   2.07842   2.09655   2.18863   2.19815
 Alpha virt. eigenvalues --    2.23709   2.36018   2.36088   2.37510   2.38875
 Alpha virt. eigenvalues --    2.42790   2.47034   2.47993   2.50554   2.54056
 Alpha virt. eigenvalues --    2.58810   2.64880   2.69249   2.78009   2.89878
 Alpha virt. eigenvalues --    3.02527   3.25304   3.52681   3.80875   3.86086
 Alpha virt. eigenvalues --    3.91656   3.96179   4.02418   4.06425   4.22611
 Alpha virt. eigenvalues --    4.24630   4.58019
          Condensed to atoms (all electrons):
               1          2          3          4          5          6
     1  N    7.018308   0.257742  -0.031334  -0.077607   0.414090  -0.072415
     2  C    0.257742   4.648873   0.512418  -0.025773  -0.087754   0.514870
     3  C   -0.031334   0.512418   4.675624   0.220845  -0.080910  -0.052203
     4  N   -0.077607  -0.025773   0.220845   6.937389   0.393834   0.010058
     5  C    0.414090  -0.087754  -0.080910   0.393834   4.708629   0.006008
     6  C   -0.072415   0.514870  -0.052203   0.010058   0.006008   4.995263
     7  C    0.005375  -0.008488  -0.036813  -0.000292  -0.000088   0.513310
     8  C   -0.000277  -0.036969  -0.006450   0.005325  -0.000051  -0.032897
     9  C    0.010018  -0.048183   0.516408  -0.078498   0.004749  -0.044854
    10  H    0.222413  -0.009492   0.003693   0.002306  -0.022296  -0.002998
    11  H    0.003419   0.005113  -0.018432   0.317993  -0.028624  -0.000102
    12  H   -0.032062   0.002396   0.002741  -0.034576   0.374271  -0.000112
    13  H   -0.003961  -0.039613   0.004011  -0.000109  -0.000028   0.356874
    14  H   -0.000097   0.002075   0.000884   0.000003   0.000003  -0.033356
    15  H    0.000003   0.000880   0.002054  -0.000096   0.000003   0.003637
    16  H   -0.000098   0.003514  -0.040126  -0.004765  -0.000113   0.000283
    17  O   -0.042215  -0.000379  -0.000004  -0.000008   0.000448   0.000295
    18  H    0.002031  -0.000006   0.000001   0.000001  -0.000051  -0.000006
    19  H    0.002031  -0.000006   0.000001   0.000001  -0.000051  -0.000006
               7          8          9         10         11         12
     1  N    0.005375  -0.000277   0.010018   0.222413   0.003419  -0.032062
     2  C   -0.008488  -0.036969  -0.048183  -0.009492   0.005113   0.002396
     3  C   -0.036813  -0.006450   0.516408   0.003693  -0.018432   0.002741
     4  N   -0.000292   0.005325  -0.078498   0.002306   0.317993  -0.034576
     5  C   -0.000088  -0.000051   0.004749  -0.022296  -0.028624   0.374271
     6  C    0.513310  -0.032897  -0.044854  -0.002998  -0.000102  -0.000112
     7  C    4.892662   0.514015  -0.033791  -0.000001   0.000004   0.000003
     8  C    0.514015   4.882043   0.519664  -0.000001  -0.000042   0.000002
     9  C   -0.033791   0.519664   4.986251  -0.000061  -0.002394  -0.000090
    10  H   -0.000001  -0.000001  -0.000061   0.285910   0.000005   0.000020
    11  H    0.000004  -0.000042  -0.002394   0.000005   0.326349  -0.000693
    12  H    0.000003   0.000002  -0.000090   0.000020  -0.000693   0.423325
    13  H   -0.030672   0.003698   0.000261   0.000973   0.000003   0.000000
    14  H    0.364486  -0.032837   0.003766  -0.000002   0.000000   0.000000
    15  H   -0.032642   0.364977  -0.033543   0.000000  -0.000001   0.000000
    16  H    0.003677  -0.030017   0.360882   0.000002   0.001688   0.000000
    17  O    0.000021   0.000000   0.000000   0.089538   0.000000   0.000044
    18  H   -0.000001   0.000000   0.000000  -0.004288   0.000000  -0.000003
    19  H   -0.000001   0.000000   0.000000  -0.004288   0.000000  -0.000003
              13         14         15         16         17         18
     1  N   -0.003961  -0.000097   0.000003  -0.000098  -0.042215   0.002031
     2  C   -0.039613   0.002075   0.000880   0.003514  -0.000379  -0.000006
     3  C    0.004011   0.000884   0.002054  -0.040126  -0.000004   0.000001
     4  N   -0.000109   0.000003  -0.000096  -0.004765  -0.000008   0.000001
     5  C   -0.000028   0.000003   0.000003  -0.000113   0.000448  -0.000051
     6  C    0.356874  -0.033356   0.003637   0.000283   0.000295  -0.000006
     7  C   -0.030672   0.364486  -0.032642   0.003677   0.000021  -0.000001
     8  C    0.003698  -0.032837   0.364977  -0.030017   0.000000   0.000000
     9  C    0.000261   0.003766  -0.033543   0.360882   0.000000   0.000000
    10  H    0.000973  -0.000002   0.000000   0.000002   0.089538  -0.004288
    11  H    0.000003   0.000000  -0.000001   0.001688   0.000000   0.000000
    12  H    0.000000   0.000000   0.000000   0.000000   0.000044  -0.000003
    13  H    0.502783  -0.003672  -0.000121   0.000011   0.003056  -0.000039
    14  H   -0.003672   0.500091  -0.003796  -0.000127   0.000000   0.000000
    15  H   -0.000121  -0.003796   0.498462  -0.003683   0.000000   0.000000
    16  H    0.000011  -0.000127  -0.003683   0.505948   0.000000   0.000000
    17  O    0.003056   0.000000   0.000000   0.000000   8.224419   0.250271
    18  H   -0.000039   0.000000   0.000000   0.000000   0.250271   0.333363
    19  H   -0.000039   0.000000   0.000000   0.000000   0.250271  -0.016804
              19
     1  N    0.002031
     2  C   -0.000006
     3  C    0.000001
     4  N    0.000001
     5  C   -0.000051
     6  C   -0.000006
     7  C   -0.000001
     8  C    0.000000
     9  C    0.000000
    10  H   -0.004288
    11  H    0.000000
    12  H   -0.000003
    13  H   -0.000039
    14  H    0.000000
    15  H    0.000000
    16  H    0.000000
    17  O    0.250271
    18  H   -0.016804
    19  H    0.333363
 Mulliken charges:
               1
     1  N   -0.675364
     2  C    0.308781
     3  C    0.327592
     4  N   -0.666033
     5  C    0.317928
     6  C   -0.161649
     7  C   -0.150764
     8  C   -0.150184
     9  C   -0.160585
    10  H    0.438566
    11  H    0.395713
    12  H    0.264736
    13  H    0.206585
    14  H    0.202580
    15  H    0.203867
    16  H    0.202925
    17  O   -0.775758
    18  H    0.435532
    19  H    0.435532
 Sum of Mulliken charges =   1.00000
 Mulliken charges with hydrogens summed into heavy atoms:
               1
     1  N   -0.236799
     2  C    0.308781
     3  C    0.327592
     4  N   -0.270320
     5  C    0.582664
     6  C    0.044936
     7  C    0.051816
     8  C    0.053683
     9  C    0.042340
    17  O    0.095306
 APT charges:
               1
     1  N   -0.417684
     2  C    0.101113
     3  C    0.114787
     4  N   -0.311887
     5  C    0.254887
     6  C    0.020175
     7  C   -0.010266
     8  C   -0.002589
     9  C    0.010169
    10  H    0.564622
    11  H    0.290324
    12  H    0.150279
    13  H    0.077460
    14  H    0.060920
    15  H    0.062390
    16  H    0.067714
    17  O   -0.598741
    18  H    0.283165
    19  H    0.283163
 Sum of APT charges =   1.00000
 APT charges with hydrogens summed into heavy atoms:
               1
     1  N    0.146938
     2  C    0.101113
     3  C    0.114787
     4  N   -0.021564
     5  C    0.405166
     6  C    0.097635
     7  C    0.050654
     8  C    0.059801
     9  C    0.077883
    17  O   -0.032413
 Electronic spatial extent (au):  <R**2>=           1583.1719
 Charge=              1.0000 electrons
 Dipole moment (field-independent basis, Debye):
    X=             -4.5979    Y=              2.8205    Z=              0.0002  Tot=              5.3941
 Quadrupole moment (field-independent basis, Debye-Ang):
   XX=            -12.9935   YY=            -30.4361   ZZ=            -57.1996
   XY=              4.1576   XZ=             -0.0004   YZ=             -0.0009
 Traceless Quadrupole moment (field-independent basis, Debye-Ang):
   XX=             20.5496   YY=              3.1069   ZZ=            -23.6566
   XY=              4.1576   XZ=             -0.0004   YZ=             -0.0009
 Octapole moment (field-independent basis, Debye-Ang**2):
  XXX=           -123.9270  YYY=             35.9616  ZZZ=              0.0005  XYY=            -10.0912
  XXY=            -31.5499  XXZ=              0.0004  XZZ=            -21.9124  YZZ=             -2.2712
  YYZ=              0.0012  XYZ=              0.0030
 Hexadecapole moment (field-independent basis, Debye-Ang**3):
 XXXX=           -505.9347 YYYY=           -462.3514 ZZZZ=            -56.9120 XXXY=            168.7931
 XXXZ=              0.0062 YYYX=             11.5377 YYYZ=             -0.0046 ZZZX=             -0.0019
 ZZZY=             -0.0016 XXYY=           -209.5409 XXZZ=           -184.4193 YYZZ=           -125.2980
 XXYZ=             -0.0099 YYXZ=             -0.0069 ZZXY=             23.3726
 N-N= 5.012117326276D+02 E-N=-2.052962727175D+03  KE= 4.528027991147D+02
  Exact polarizability: 114.000 -10.870 105.424   0.001   0.000  34.978
 Approx polarizability: 222.695 -23.123 218.708   0.001   0.000  56.384
 Calling FoFJK, ICntrl=    100527 FMM=F ISym2X=0 I1Cent= 0 IOpClX= 0 NMat=1 NMatS=1 NMatT=0.
 Full mass-weighted force constant matrix:
 Low frequencies ---   -0.0005   -0.0002    0.0011    2.0000    7.8976   10.7911
 Low frequencies ---   51.9583   70.1933  157.1567
 Diagonal vibrational polarizability:
       29.4695891      89.6082980      84.3460098
 Harmonic frequencies (cm**-1), IR intensities (KM/Mole), Raman scattering
 activities (A**4/AMU), depolarization ratios for plane and unpolarized
 incident light, reduced masses (AMU), force constants (mDyne/A),
 and normal coordinates:
                      1                      2                      3
                      A                      A                      A
 Frequencies --     51.9337                70.1918               157.1565
 Red. masses --      5.0174                 3.8359                 1.0414
 Frc consts  --      0.0080                 0.0111                 0.0152
 IR Inten    --      0.5316                 5.0953                27.7005
  Atom  AN      X      Y      Z        X      Y      Z        X      Y      Z
     1   7     0.02  -0.15   0.00     0.00   0.00   0.22     0.00   0.00   0.01
     2   6     0.06  -0.08   0.00     0.00   0.00   0.14     0.00   0.00   0.00
     3   6     0.00  -0.02   0.00     0.00   0.00  -0.04     0.00   0.00  -0.01
     4   7    -0.07  -0.06   0.00     0.00   0.00  -0.05     0.00   0.00  -0.01
     5   6    -0.05  -0.14   0.00     0.00   0.00   0.10     0.00   0.00   0.00
     6   6     0.15  -0.06   0.00     0.00   0.00   0.21     0.00   0.00   0.00
     7   6     0.17   0.02   0.00     0.00   0.00   0.07     0.00   0.00   0.02
     8   6     0.11   0.09   0.00     0.00   0.00  -0.13     0.00   0.00   0.01
     9   6     0.02   0.07   0.00     0.00   0.00  -0.19     0.00   0.00  -0.01
    10   1     0.02  -0.16   0.00     0.00   0.00   0.19     0.00   0.00   0.02
    11   1    -0.12  -0.04   0.00     0.00   0.00  -0.14     0.00   0.00  -0.02
    12   1    -0.10  -0.19   0.00     0.00   0.00   0.11     0.00   0.00   0.01
    13   1     0.21  -0.11   0.00     0.00   0.00   0.35     0.00   0.00  -0.01
    14   1     0.24   0.04   0.00     0.00   0.00   0.11     0.00   0.00   0.02
    15   1     0.13   0.15   0.00     0.00   0.00  -0.25     0.00   0.00   0.02
    16   1    -0.03   0.12   0.00     0.00   0.00  -0.34     0.00   0.00  -0.01
    17   8    -0.30   0.26   0.00     0.00   0.00  -0.22     0.00   0.00  -0.04
    18   1    -0.32   0.35   0.00     0.19   0.10  -0.38    -0.45   0.51   0.20
    19   1    -0.32   0.35   0.00    -0.19  -0.10  -0.38     0.45  -0.51   0.20
                      4                      5                      6
                      A                      A                      A
 Frequencies --    217.0068               231.9217               254.7792
 Red. masses --      4.1028                 4.0761                 3.7485
 Frc consts  --      0.1138                 0.1292                 0.1434
 IR Inten    --      7.3014                27.5839                 4.9107
  Atom  AN      X      Y      Z        X      Y      Z        X      Y      Z
     1   7     0.00   0.00  -0.01     0.04   0.08   0.00     0.00   0.00   0.25
     2   6     0.00   0.00   0.26     0.04   0.06   0.00     0.00   0.00   0.05
     3   6     0.00   0.00   0.25     0.07   0.03   0.00     0.00   0.00  -0.07
     4   7     0.00   0.00  -0.03     0.10   0.04   0.00     0.00   0.00  -0.25
     5   6     0.00   0.00  -0.24     0.09   0.08   0.00     0.00   0.00   0.01
     6   6     0.00   0.00   0.11     0.01   0.05   0.00     0.00   0.00  -0.15
     7   6     0.00   0.00  -0.19     0.00   0.01   0.00     0.00   0.00  -0.15
     8   6     0.00   0.00  -0.16     0.03  -0.02   0.00     0.00   0.00   0.16
     9   6     0.00   0.00   0.14     0.07  -0.01   0.00     0.00   0.00   0.14
    10   1     0.00   0.00  -0.09     0.05   0.10   0.00     0.00   0.00   0.32
    11   1     0.00   0.00  -0.18     0.11   0.04   0.00     0.00   0.00  -0.38
    12   1     0.00   0.00  -0.53     0.11   0.11   0.00     0.00   0.00   0.02
    13   1     0.00   0.00   0.08    -0.01   0.07   0.00     0.00   0.00  -0.25
    14   1     0.00   0.00  -0.44    -0.03   0.00   0.00     0.00   0.00  -0.31
    15   1     0.00   0.00  -0.39     0.02  -0.05   0.00     0.00   0.00   0.34
    16   1     0.00   0.00   0.13     0.09  -0.03   0.00     0.00   0.00   0.26
    17   8     0.00   0.00  -0.01    -0.35  -0.21   0.00     0.00   0.00   0.02
    18   1    -0.11  -0.01   0.07    -0.27  -0.54   0.01     0.20   0.16  -0.16
    19   1     0.11   0.01   0.07    -0.27  -0.54  -0.01    -0.20  -0.16  -0.16
                      7                      8                      9
                      A                      A                      A
 Frequencies --    271.0444               380.1073               404.7134
 Red. masses --      1.2831                 1.1953                 4.0150
 Frc consts  --      0.0555                 0.1017                 0.3875
 IR Inten    --    245.2611                25.3653                 5.3103
  Atom  AN      X      Y      Z        X      Y      Z        X      Y      Z
     1   7     0.00   0.01   0.00     0.00   0.00   0.07     0.12  -0.13   0.00
     2   6     0.00   0.01   0.00     0.00   0.00   0.02     0.20   0.12   0.00
     3   6     0.01   0.01   0.00     0.00   0.00  -0.02     0.11   0.20   0.00
     4   7     0.01   0.01   0.00     0.00   0.00  -0.03    -0.13   0.12   0.00
     5   6     0.01   0.01   0.00     0.00   0.00   0.03    -0.11  -0.12   0.00
     6   6     0.00   0.01   0.00     0.00   0.00  -0.01    -0.03   0.10   0.00
     7   6     0.00   0.00   0.00     0.00   0.00  -0.01    -0.11  -0.10   0.00
     8   6     0.00   0.00   0.00     0.00   0.00   0.02    -0.09  -0.11   0.00
     9   6     0.01   0.00   0.00     0.00   0.00  -0.01     0.10  -0.03   0.00
    10   1     0.00  -0.01   0.00     0.00   0.00  -0.18     0.20  -0.28   0.00
    11   1     0.02   0.01   0.00     0.00   0.00  -0.01    -0.35   0.22   0.00
    12   1     0.02   0.02   0.00     0.00   0.00   0.02    -0.25  -0.26   0.00
    13   1     0.00   0.01   0.00     0.00   0.00  -0.03    -0.21   0.27   0.00
    14   1    -0.01   0.00   0.00     0.00   0.00  -0.02    -0.18  -0.12   0.00
    15   1     0.00  -0.01   0.00     0.00   0.00   0.05    -0.11  -0.18   0.00
    16   1     0.01   0.00   0.00     0.00   0.00  -0.02     0.27  -0.21   0.00
    17   8    -0.01  -0.13   0.00     0.00   0.00  -0.08    -0.01   0.01   0.00
    18   1    -0.24   0.66   0.01    -0.37  -0.50   0.29     0.00   0.00   0.00
    19   1    -0.24   0.66  -0.01     0.37   0.50   0.29     0.00   0.00   0.00
                     10                     11                     12
                      A                      A                      A
 Frequencies --    417.5805               534.7970               561.7420
 Red. masses --      3.1163                 6.8108                 4.0194
 Frc consts  --      0.3202                 1.1477                 0.7473
 IR Inten    --      9.2638                 1.5750                 1.6668
  Atom  AN      X      Y      Z        X      Y      Z        X      Y      Z
     1   7     0.00   0.00  -0.03     0.15  -0.14   0.00     0.00   0.00   0.07
     2   6     0.00   0.00  -0.17     0.07  -0.09   0.00     0.00   0.00  -0.12
     3   6     0.00   0.00  -0.17     0.09  -0.06   0.00     0.00   0.00   0.18
     4   7     0.00   0.00  -0.04     0.14  -0.15   0.00     0.00   0.00  -0.17
     5   6     0.00   0.00   0.09     0.15  -0.15   0.00     0.00   0.00   0.05
     6   6     0.00   0.00   0.23    -0.26  -0.08   0.00     0.00   0.00  -0.17
     7   6     0.00   0.00  -0.10    -0.24   0.21   0.00     0.00   0.00   0.25
     8   6     0.00   0.00  -0.11    -0.22   0.24   0.00     0.00   0.00  -0.25
     9   6     0.00   0.00   0.22     0.08   0.27   0.00     0.00   0.00   0.18
    10   1     0.00   0.00  -0.02     0.16  -0.15   0.00     0.00   0.00   0.05
    11   1     0.00   0.00   0.02     0.17  -0.17   0.00     0.00   0.00   0.05
    12   1     0.00   0.00   0.17     0.16  -0.16   0.00     0.00   0.00   0.15
    13   1     0.00   0.00   0.61    -0.29  -0.05   0.00     0.00   0.00  -0.20
    14   1     0.00   0.00  -0.10    -0.02   0.28   0.00     0.00   0.00   0.54
    15   1     0.00   0.00  -0.11    -0.28   0.01   0.00     0.00   0.00  -0.59
    16   1     0.00   0.00   0.62     0.06   0.29   0.00     0.00   0.00   0.12
    17   8     0.00   0.00  -0.01    -0.01   0.00   0.00     0.00   0.00   0.00
    18   1    -0.05  -0.03   0.03     0.00  -0.02   0.00    -0.01  -0.03   0.01
    19   1     0.05   0.03   0.03     0.00  -0.02   0.00     0.01   0.03   0.01
                     13                     14                     15
                      A                      A                      A
 Frequencies --    578.0080               615.1474               638.7748
 Red. masses --      2.4433                 6.5296                 1.3672
 Frc consts  --      0.4810                 1.4558                 0.3287
 IR Inten    --     48.9575                 5.8693                42.8262
  Atom  AN      X      Y      Z        X      Y      Z        X      Y      Z
     1   7     0.00   0.00   0.16    -0.20  -0.05   0.00     0.00   0.00   0.11
     2   6     0.00   0.00  -0.12    -0.12   0.13   0.00     0.00   0.00  -0.04
     3   6     0.00   0.00  -0.08     0.13  -0.12   0.00     0.00   0.00  -0.04
     4   7     0.00   0.00   0.21    -0.05  -0.20   0.00     0.00   0.00   0.00
     5   6     0.00   0.00  -0.14    -0.09  -0.09   0.00     0.00   0.00  -0.12
     6   6     0.00   0.00  -0.05    -0.09   0.27   0.00     0.00   0.00   0.00
     7   6     0.00   0.00   0.04    -0.09   0.28   0.00     0.00   0.00   0.00
     8   6     0.00   0.00  -0.04     0.27  -0.08   0.00     0.00   0.00   0.00
     9   6     0.00   0.00   0.02     0.27  -0.08   0.00     0.00   0.00   0.00
    10   1     0.00   0.00   0.10    -0.18  -0.14   0.00     0.00   0.00  -0.03
    11   1     0.00   0.00  -0.71    -0.14  -0.16   0.00     0.00   0.00   0.96
    12   1     0.00   0.00  -0.54     0.04   0.03   0.00     0.00   0.00  -0.21
    13   1     0.00   0.00   0.08     0.00   0.19   0.00     0.00   0.00   0.05
    14   1     0.00   0.00   0.19    -0.37   0.19   0.00     0.00   0.00   0.02
    15   1     0.00   0.00  -0.01     0.20  -0.36   0.00     0.00   0.00   0.02
    16   1     0.00   0.00   0.17     0.19   0.00   0.00     0.00   0.00   0.03
    17   8     0.00   0.00   0.00     0.01   0.01   0.00     0.00   0.00   0.01
    18   1    -0.02  -0.02   0.01     0.03   0.00  -0.01     0.01   0.03  -0.01
    19   1     0.02   0.02   0.01     0.03   0.00   0.01    -0.01  -0.03  -0.01
                     16                     17                     18
                      A                      A                      A
 Frequencies --    741.0957               756.2687               773.6095
 Red. masses --      5.9907                 1.2468                 5.2238
 Frc consts  --      1.9385                 0.4201                 1.8420
 IR Inten    --      0.0356                80.2203                 5.7074
  Atom  AN      X      Y      Z        X      Y      Z        X      Y      Z
     1   7     0.00   0.00  -0.10     0.00   0.00   0.01     0.06  -0.14   0.00
     2   6     0.00   0.00   0.42     0.00   0.00  -0.06     0.01   0.12   0.00
     3   6     0.00   0.00  -0.42     0.00   0.00  -0.05    -0.11  -0.01   0.00
     4   7     0.00   0.00   0.08     0.00   0.00   0.01     0.14  -0.06   0.00
     5   6     0.00   0.00   0.01     0.00   0.00   0.01     0.16  -0.16   0.00
     6   6     0.00   0.00  -0.12     0.00   0.00   0.06     0.12   0.33   0.00
     7   6     0.00   0.00   0.17     0.00   0.00   0.05     0.01   0.05   0.00
     8   6     0.00   0.00  -0.15     0.00   0.00   0.06    -0.06  -0.01   0.00
     9   6     0.00   0.00   0.14     0.00   0.00   0.07    -0.33  -0.12   0.00
    10   1     0.00   0.00  -0.06     0.00   0.00   0.02     0.06  -0.17   0.00
    11   1     0.00   0.00   0.15     0.00   0.00  -0.01     0.18  -0.08   0.00
    12   1     0.00   0.00  -0.01     0.00   0.00  -0.12     0.17  -0.16   0.00
    13   1     0.00   0.00  -0.56     0.00   0.00  -0.39     0.03   0.44   0.00
    14   1     0.00   0.00   0.02     0.00   0.00  -0.53    -0.24  -0.01   0.00
    15   1     0.00   0.00  -0.18     0.00   0.00  -0.55     0.00   0.24   0.00
    16   1     0.00   0.00   0.43     0.00   0.00  -0.49    -0.43  -0.03   0.00
    17   8     0.00   0.00   0.00     0.00   0.00   0.00     0.00   0.00   0.00
    18   1     0.01   0.01  -0.01     0.00  -0.01   0.00     0.00   0.00   0.00
    19   1    -0.01  -0.01  -0.01     0.00   0.01   0.00     0.00   0.00   0.00
                     19                     20                     21
                      A                      A                      A
 Frequencies --    808.2756               859.3414               871.4661
 Red. masses --      1.3554                 1.3275                 5.0327
 Frc consts  --      0.5217                 0.5776                 2.2519
 IR Inten    --     10.7748                 0.1150                 1.2681
  Atom  AN      X      Y      Z        X      Y      Z        X      Y      Z
     1   7     0.00   0.00  -0.03     0.00   0.00  -0.01     0.22  -0.02   0.00
     2   6     0.00   0.00   0.00     0.00   0.00   0.05    -0.01  -0.10   0.00
     3   6     0.00   0.00   0.01     0.00   0.00  -0.04    -0.10  -0.02   0.00
     4   7     0.00   0.00  -0.04     0.00   0.00   0.01    -0.03   0.22   0.00
     5   6     0.00   0.00   0.17     0.00   0.00   0.00     0.01   0.00   0.00
     6   6     0.00   0.00  -0.01     0.00   0.00  -0.09    -0.16  -0.12   0.00
     7   6     0.00   0.00   0.00     0.00   0.00  -0.06    -0.07   0.26   0.00
     8   6     0.00   0.00   0.00     0.00   0.00   0.04     0.26  -0.06   0.00
     9   6     0.00   0.00  -0.01     0.00   0.00   0.10    -0.12  -0.17   0.00
    10   1     0.00   0.00  -0.12     0.00   0.00  -0.02     0.23   0.01   0.00
    11   1     0.00   0.00   0.08     0.00   0.00   0.01    -0.04   0.23   0.00
    12   1     0.00   0.00  -0.97     0.00   0.00   0.01    -0.30  -0.31   0.00
    13   1     0.00   0.00   0.04     0.00   0.00   0.63     0.02  -0.30   0.00
    14   1     0.00   0.00   0.06     0.00   0.00   0.34    -0.17   0.24   0.00
    15   1     0.00   0.00   0.06     0.00   0.00  -0.21     0.24  -0.16   0.00
    16   1     0.00   0.00   0.03     0.00   0.00  -0.65    -0.32   0.03   0.00
    17   8     0.00   0.00   0.01     0.00   0.00   0.00     0.00   0.00   0.00
    18   1     0.02   0.03  -0.01     0.00   0.01   0.00    -0.01   0.00   0.01
    19   1    -0.02  -0.03  -0.01     0.00  -0.01   0.00    -0.01   0.00  -0.01
                     22                     23                     24
                      A                      A                      A
 Frequencies --    932.9724               944.7923               992.6941
 Red. masses --      5.1729                 1.3202                 1.2786
 Frc consts  --      2.6529                 0.6943                 0.7423
 IR Inten    --     14.4527                 0.3236                 0.0017
  Atom  AN      X      Y      Z        X      Y      Z        X      Y      Z
     1   7     0.28   0.14   0.00     0.00   0.00   0.00     0.00   0.00   0.00
     2   6     0.15   0.05   0.00     0.00   0.00   0.02     0.00   0.00   0.01
     3   6    -0.05  -0.13   0.00     0.00   0.00   0.01     0.00   0.00  -0.01
     4   7    -0.15  -0.28   0.00     0.00   0.00  -0.01     0.00   0.00   0.00
     5   6    -0.21   0.20   0.00     0.00   0.00   0.00     0.00   0.00   0.00
     6   6     0.03   0.06   0.00     0.00   0.00  -0.09     0.00   0.00   0.05
     7   6    -0.03   0.00   0.00     0.00   0.00   0.07     0.00   0.00  -0.11
     8   6     0.00   0.02   0.00     0.00   0.00   0.09     0.00   0.00   0.10
     9   6    -0.05  -0.02   0.00     0.00   0.00  -0.09     0.00   0.00  -0.04
    10   1     0.45  -0.05   0.00     0.00   0.00  -0.03     0.00   0.00   0.01
    11   1     0.23  -0.47   0.00     0.00   0.00   0.00     0.00   0.00   0.00
    12   1    -0.24   0.19   0.00     0.00   0.00   0.02     0.00   0.00   0.00
    13   1    -0.09   0.19   0.00     0.00   0.00   0.54     0.00   0.00  -0.34
    14   1    -0.09  -0.02   0.00     0.00   0.00  -0.41     0.00   0.00   0.65
    15   1     0.02   0.07   0.00     0.00   0.00  -0.53     0.00   0.00  -0.60
    16   1    -0.15   0.07   0.00     0.00   0.00   0.48     0.00   0.00   0.27
    17   8    -0.01   0.00   0.00     0.00   0.00   0.00     0.00   0.00   0.00
    18   1    -0.02   0.01   0.01     0.00   0.01   0.00     0.00   0.00   0.00
    19   1    -0.02   0.01  -0.01     0.00  -0.01   0.00     0.00   0.00   0.00
                     25                     26                     27
                      A                      A                      A
 Frequencies --   1023.6654              1049.7493              1122.2536
 Red. masses --      2.2049                 1.0507                 1.8963
 Frc consts  --      1.3613                 0.6822                 1.4071
 IR Inten    --      1.7635               108.7790                 2.7314
  Atom  AN      X      Y      Z        X      Y      Z        X      Y      Z
     1   7     0.01   0.01   0.00     0.00   0.00  -0.05    -0.06   0.00   0.00
     2   6     0.00  -0.03   0.00     0.00   0.00   0.00     0.11   0.04   0.00
     3   6     0.02   0.00   0.00     0.00   0.00   0.00     0.04   0.11   0.00
     4   7    -0.01   0.00   0.00     0.00   0.00   0.00    -0.02  -0.07   0.00
     5   6    -0.02   0.02   0.00     0.00   0.00   0.00     0.01   0.00   0.00
     6   6     0.12  -0.01   0.00     0.00   0.00  -0.01    -0.11  -0.08   0.00
     7   6     0.01   0.19   0.00     0.00   0.00   0.00     0.04   0.05   0.00
     8   6    -0.19  -0.01   0.00     0.00   0.00   0.00     0.04   0.04   0.00
     9   6     0.01  -0.12   0.00     0.00   0.00   0.00    -0.08  -0.11   0.00
    10   1     0.01   0.01   0.00     0.00   0.00   0.97    -0.03  -0.08   0.00
    11   1    -0.01  -0.01   0.00     0.00   0.00   0.10    -0.17  -0.01   0.00
    12   1    -0.03   0.02   0.00     0.00   0.00  -0.11     0.44   0.43   0.00
    13   1     0.48  -0.34   0.00     0.00   0.00   0.03    -0.31   0.11   0.00
    14   1     0.19   0.26   0.00     0.00   0.00   0.00     0.37   0.15   0.00
    15   1    -0.26  -0.20   0.00     0.00   0.00   0.00     0.13   0.35   0.00
    16   1     0.34  -0.47   0.00     0.00   0.00   0.01     0.10  -0.30   0.00
    17   8     0.00   0.00   0.00     0.00   0.00  -0.03     0.00   0.00   0.00
    18   1     0.00   0.00   0.00    -0.07  -0.11   0.05     0.01   0.00   0.00
    19   1     0.00   0.00   0.00     0.07   0.11   0.05     0.01   0.00   0.00
                     28                     29                     30
                      A                      A                      A
 Frequencies --   1163.6880              1175.0094              1189.9520
 Red. masses --      1.3873                 1.3917                 1.2989
 Frc consts  --      1.1068                 1.1321                 1.0837
 IR Inten    --     13.4309                 5.9615                 5.6101
  Atom  AN      X      Y      Z        X      Y      Z        X      Y      Z
     1   7    -0.02  -0.04   0.00     0.01   0.07   0.00     0.05   0.05   0.00
     2   6    -0.04   0.02   0.00    -0.01  -0.01   0.00    -0.07  -0.01   0.00
     3   6    -0.01   0.02   0.00     0.02  -0.11   0.00     0.01  -0.02   0.00
     4   7     0.10   0.02   0.00    -0.03   0.02   0.00    -0.04  -0.03   0.00
     5   6    -0.10   0.03   0.00     0.04  -0.05   0.00     0.06  -0.05   0.00
     6   6    -0.04  -0.01   0.00    -0.03   0.04   0.00    -0.01   0.02   0.00
     7   6     0.02  -0.02   0.00     0.07   0.01   0.00    -0.02  -0.03   0.00
     8   6     0.01   0.05   0.00    -0.04   0.00   0.00     0.01   0.06   0.00
     9   6     0.02  -0.04   0.00     0.01  -0.03   0.00     0.02  -0.02   0.00
    10   1     0.02  -0.17   0.00    -0.08   0.29   0.00    -0.01   0.22   0.00
    11   1     0.58  -0.18   0.00    -0.24   0.11   0.00    -0.33   0.09   0.00
    12   1    -0.41  -0.28   0.00    -0.25  -0.35   0.00    -0.04  -0.16   0.00
    13   1    -0.14   0.08   0.00    -0.38   0.38   0.00     0.14  -0.13   0.00
    14   1     0.13   0.02   0.00     0.55   0.15   0.00    -0.37  -0.14   0.00
    15   1     0.09   0.33   0.00    -0.07  -0.08   0.00     0.16   0.61   0.00
    16   1     0.27  -0.29   0.00    -0.02  -0.01   0.00     0.31  -0.31   0.00
    17   8     0.00   0.00   0.00     0.00   0.00   0.00     0.00   0.00   0.00
    18   1     0.01   0.00  -0.01    -0.02   0.00   0.01    -0.01   0.00   0.01
    19   1     0.01   0.00   0.01    -0.02   0.00  -0.01    -0.01   0.00  -0.01
                     31                     32                     33
                      A                      A                      A
 Frequencies --   1253.1400              1284.4290              1289.6114
 Red. masses --      2.0910                 2.6679                 1.7258
 Frc consts  --      1.9347                 2.5932                 1.6910
 IR Inten    --      9.2096                11.4626                 7.0247
  Atom  AN      X      Y      Z        X      Y      Z        X      Y      Z
     1   7    -0.07   0.12   0.00     0.12  -0.01   0.00    -0.05  -0.02   0.00
     2   6     0.14   0.01   0.00    -0.18  -0.02   0.00     0.12  -0.14   0.00
     3   6     0.03   0.15   0.00    -0.14   0.20   0.00    -0.08  -0.06   0.00
     4   7     0.03  -0.10   0.00    -0.05  -0.09   0.00    -0.05   0.06   0.00
     5   6    -0.01  -0.11   0.00     0.07  -0.03   0.00     0.01   0.02   0.00
     6   6     0.00  -0.05   0.00    -0.03   0.02   0.00     0.08   0.00   0.00
     7   6    -0.02   0.03   0.00     0.07  -0.02   0.00    -0.02   0.06   0.00
     8   6     0.03  -0.04   0.00     0.06  -0.06   0.00     0.01   0.03   0.00
     9   6    -0.06   0.01   0.00    -0.01   0.10   0.00     0.01   0.02   0.00
    10   1    -0.28   0.55   0.00     0.03   0.21   0.00    -0.21   0.29   0.00
    11   1     0.20  -0.18   0.00     0.18  -0.21   0.00     0.24  -0.07   0.00
    12   1    -0.34  -0.45   0.00     0.16   0.02   0.00     0.11   0.13   0.00
    13   1     0.15  -0.20   0.00    -0.12   0.10   0.00    -0.36   0.45   0.00
    14   1    -0.17  -0.01   0.00     0.21   0.02   0.00    -0.46  -0.07   0.00
    15   1     0.01  -0.12   0.00    -0.06  -0.55   0.00    -0.02  -0.08   0.00
    16   1    -0.17   0.11   0.00     0.47  -0.35   0.00     0.29  -0.26   0.00
    17   8     0.00   0.00   0.00     0.00   0.00   0.00     0.00   0.00   0.00
    18   1    -0.03  -0.01   0.02    -0.02   0.00   0.01    -0.01   0.00   0.01
    19   1    -0.03  -0.01  -0.02    -0.02   0.00  -0.01    -0.01   0.00  -0.01
                     34                     35                     36
                      A                      A                      A
 Frequencies --   1400.1860              1416.9946              1456.1555
 Red. masses --      7.3299                 1.4783                 2.3763
 Frc consts  --      8.4668                 1.7488                 2.9687
 IR Inten    --      0.2407                31.5760                24.7615
  Atom  AN      X      Y      Z        X      Y      Z        X      Y      Z
     1   7    -0.01   0.03   0.00     0.02  -0.04   0.00    -0.07   0.09   0.00
     2   6     0.04   0.30   0.00     0.02  -0.01   0.00     0.14   0.07   0.00
     3   6    -0.30  -0.03   0.00    -0.01  -0.02   0.00    -0.04  -0.15   0.00
     4   7    -0.05   0.00   0.00    -0.11   0.06   0.00    -0.06   0.05   0.00
     5   6     0.12  -0.10   0.00     0.03  -0.03   0.00     0.08  -0.06   0.00
     6   6     0.20  -0.16   0.00    -0.04   0.08   0.00    -0.11   0.05   0.00
     7   6    -0.32  -0.12   0.00    -0.04  -0.02   0.00     0.05  -0.04   0.00
     8   6     0.11   0.31   0.00    -0.02  -0.07   0.00     0.05  -0.01   0.00
     9   6     0.17  -0.20   0.00     0.06   0.00   0.00    -0.09   0.11   0.00
    10   1    -0.03   0.05   0.00    -0.18   0.38   0.00     0.19  -0.47   0.00
    11   1     0.06  -0.05   0.00     0.50  -0.22   0.00     0.18  -0.06   0.00
    12   1     0.10  -0.16   0.00     0.21   0.15   0.00     0.03  -0.13   0.00
    13   1     0.05  -0.01   0.00     0.23  -0.18   0.00     0.27  -0.34   0.00
    14   1     0.45   0.11   0.00     0.35   0.10   0.00     0.07  -0.05   0.00
    15   1    -0.08  -0.39   0.00     0.11   0.38   0.00    -0.02  -0.27   0.00
    16   1    -0.03   0.00   0.00    -0.11   0.17   0.00     0.39  -0.37   0.00
    17   8     0.00   0.00   0.00     0.00   0.00   0.00    -0.01   0.00   0.00
    18   1     0.00   0.00   0.00    -0.03  -0.01   0.02     0.04   0.01  -0.03
    19   1     0.00   0.00   0.00    -0.03  -0.01  -0.02     0.04   0.01   0.03
                     37                     38                     39
                      A                      A                      A
 Frequencies --   1525.5145              1526.9227              1564.1963
 Red. masses --      2.4925                 2.2048                 4.1803
 Frc consts  --      3.4175                 3.0287                 6.0261
 IR Inten    --      4.3222                 2.1884                14.9493
  Atom  AN      X      Y      Z        X      Y      Z        X      Y      Z
     1   7     0.03   0.06   0.00     0.06  -0.05   0.00    -0.04  -0.23   0.00
     2   6    -0.08   0.11   0.00     0.01   0.01   0.00     0.02   0.06   0.00
     3   6     0.07  -0.01   0.00     0.05  -0.06   0.00     0.14   0.01   0.00
     4   7    -0.09   0.05   0.00     0.10   0.03   0.00    -0.15  -0.05   0.00
     5   6     0.00  -0.13   0.00    -0.18  -0.05   0.00     0.21   0.30   0.00
     6   6    -0.05  -0.08   0.00    -0.07   0.08   0.00    -0.07   0.01   0.00
     7   6     0.20   0.03   0.00     0.01  -0.08   0.00     0.05  -0.04   0.00
     8   6    -0.08   0.09   0.00     0.05   0.14   0.00     0.02   0.13   0.00
     9   6     0.04  -0.11   0.00    -0.07  -0.02   0.00    -0.07  -0.06   0.00
    10   1     0.10  -0.05   0.00    -0.24   0.58   0.00    -0.33   0.28   0.00
    11   1     0.46  -0.19   0.00    -0.12   0.15   0.00     0.00  -0.13   0.00
    12   1     0.24   0.09   0.00     0.17   0.33   0.00    -0.44  -0.34   0.00
    13   1    -0.19   0.03   0.00     0.21  -0.20   0.00     0.08  -0.16   0.00
    14   1    -0.56  -0.20   0.00     0.05  -0.09   0.00    -0.14  -0.12   0.00
    15   1    -0.18  -0.18   0.00    -0.10  -0.40   0.00    -0.12  -0.35   0.00
    16   1    -0.24   0.16   0.00     0.10  -0.20   0.00    -0.08  -0.07   0.00
    17   8     0.00   0.00   0.00     0.01   0.00   0.00     0.01   0.00   0.00
    18   1     0.00   0.00   0.00    -0.07  -0.02   0.06    -0.03  -0.01   0.02
    19   1     0.00   0.00   0.00    -0.07  -0.02  -0.06    -0.03  -0.01  -0.02
                     40                     41                     42
                      A                      A                      A
 Frequencies --   1641.8649              1644.2664              1700.9703
 Red. masses --      5.6871                 4.7457                 1.1023
 Frc consts  --      9.0327                 7.5595                 1.8790
 IR Inten    --      1.3830                27.8500                50.3860
  Atom  AN      X      Y      Z        X      Y      Z        X      Y      Z
     1   7     0.05  -0.08   0.00    -0.01   0.12   0.00    -0.02   0.01   0.00
     2   6    -0.11   0.33   0.00    -0.13  -0.22   0.00     0.00  -0.02   0.00
     3   6     0.19  -0.16   0.00     0.32   0.07   0.00     0.01   0.01   0.00
     4   7    -0.02   0.03   0.00    -0.12   0.04   0.00    -0.01   0.00   0.00
     5   6    -0.04  -0.03   0.00     0.02  -0.07   0.00     0.01   0.00   0.00
     6   6     0.18  -0.25   0.00     0.12   0.06   0.00     0.00   0.01   0.00
     7   6    -0.10   0.08   0.00    -0.21  -0.08   0.00    -0.01   0.00   0.00
     8   6     0.04  -0.19   0.00     0.10   0.14   0.00     0.00   0.01   0.00
     9   6    -0.20   0.21   0.00    -0.15  -0.04   0.00     0.00  -0.01   0.00
    10   1    -0.17   0.38   0.00     0.23  -0.37   0.00     0.10  -0.14   0.00
    11   1     0.15  -0.04   0.00     0.41  -0.20   0.00     0.02  -0.01   0.00
    12   1     0.08   0.10   0.00     0.11  -0.02   0.00     0.00  -0.02   0.00
    13   1    -0.28   0.19   0.00     0.01   0.20   0.00     0.00   0.01   0.00
    14   1     0.02   0.13   0.00     0.28   0.07   0.00     0.01   0.00   0.00
    15   1     0.15   0.15   0.00     0.01  -0.23   0.00     0.00  -0.01   0.00
    16   1     0.26  -0.24   0.00    -0.08  -0.14   0.00    -0.01   0.00   0.00
    17   8     0.02   0.00   0.00    -0.02   0.00   0.00     0.07   0.02   0.00
    18   1    -0.13  -0.04   0.10     0.13   0.04  -0.11    -0.53  -0.16   0.42
    19   1    -0.13  -0.04  -0.10     0.13   0.04   0.11    -0.53  -0.16  -0.42
                     43                     44                     45
                      A                      A                      A
 Frequencies --   3044.5015              3185.1343              3193.9340
 Red. masses --      1.0972                 1.0875                 1.0901
 Frc consts  --      5.9921                 6.5001                 6.5520
 IR Inten    --   1626.4909                 0.2834                 0.9090
  Atom  AN      X      Y      Z        X      Y      Z        X      Y      Z
     1   7    -0.07  -0.04   0.00     0.00   0.00   0.00     0.00   0.00   0.00
     2   6     0.00   0.00   0.00     0.00   0.00   0.00     0.00   0.00   0.00
     3   6     0.00   0.00   0.00     0.00   0.00   0.00     0.00   0.00   0.00
     4   7     0.00   0.00   0.00     0.00   0.00   0.00     0.00   0.00   0.00
     5   6     0.00   0.00   0.00     0.00   0.00   0.00     0.00   0.00   0.00
     6   6     0.00   0.00   0.00     0.01   0.01   0.00     0.02   0.02   0.00
     7   6     0.00   0.00   0.00     0.02  -0.05   0.00     0.01  -0.05   0.00
     8   6     0.00   0.00   0.00    -0.05   0.02   0.00     0.03  -0.01   0.00
     9   6     0.00   0.00   0.00     0.02   0.02   0.00    -0.04  -0.04   0.00
    10   1     0.89   0.44   0.00     0.00   0.00   0.00     0.00   0.00   0.00
    11   1     0.01   0.01   0.00     0.00   0.00   0.00     0.00   0.00   0.00
    12   1    -0.01   0.00   0.00     0.00   0.00   0.00     0.00   0.00   0.00
    13   1     0.01   0.00   0.00    -0.16  -0.16   0.00    -0.27  -0.27   0.00
    14   1     0.00   0.00   0.00    -0.18   0.59   0.00    -0.17   0.57   0.00
    15   1     0.00   0.00   0.00     0.64  -0.18   0.00    -0.35   0.09   0.00
    16   1     0.00   0.00   0.00    -0.25  -0.24   0.00     0.43   0.43   0.00
    17   8     0.00   0.00   0.00     0.00   0.00   0.00     0.00   0.00   0.00
    18   1     0.03   0.02   0.00     0.00   0.00   0.00     0.00   0.00   0.00
    19   1     0.03   0.02   0.00     0.00   0.00   0.00     0.00   0.00   0.00
                     46                     47                     48
                      A                      A                      A
 Frequencies --   3202.6489              3207.9649              3285.6461
 Red. masses --      1.0952                 1.0971                 1.1010
 Frc consts  --      6.6183                 6.6519                 7.0032
 IR Inten    --      0.8692                 0.6492                31.4795
  Atom  AN      X      Y      Z        X      Y      Z        X      Y      Z
     1   7     0.00   0.00   0.00     0.00   0.00   0.00     0.00   0.00   0.00
     2   6     0.00   0.00   0.00     0.00   0.00   0.00     0.00   0.00   0.00
     3   6     0.00   0.00   0.00     0.00   0.00   0.00     0.00   0.00   0.00
     4   7     0.00   0.00   0.00     0.00   0.00   0.00     0.00   0.00   0.00
     5   6     0.00   0.00   0.00     0.00   0.00   0.00     0.07  -0.06   0.00
     6   6    -0.03  -0.03   0.00    -0.05  -0.05   0.00     0.00   0.00   0.00
     7   6     0.00   0.00   0.00     0.01  -0.04   0.00     0.00   0.00   0.00
     8   6    -0.05   0.02   0.00     0.03  -0.01   0.00     0.00   0.00   0.00
     9   6    -0.04  -0.04   0.00     0.02   0.02   0.00     0.00   0.00   0.00
    10   1     0.00   0.00   0.00     0.00   0.00   0.00     0.00  -0.01   0.00
    11   1     0.00   0.00   0.00     0.00   0.00   0.00     0.00  -0.02   0.00
    12   1     0.00   0.00   0.00     0.00   0.00   0.00    -0.71   0.70   0.00
    13   1     0.36   0.37   0.00     0.51   0.52   0.00     0.00   0.00   0.00
    14   1     0.00  -0.02   0.00    -0.15   0.49   0.00     0.00   0.00   0.00
    15   1     0.52  -0.15   0.00    -0.36   0.10   0.00     0.00   0.00   0.00
    16   1     0.46   0.47   0.00    -0.18  -0.18   0.00     0.00   0.00   0.00
    17   8     0.00   0.00   0.00     0.00   0.00   0.00     0.00   0.00   0.00
    18   1     0.00   0.00   0.00     0.00   0.00   0.00     0.00   0.00   0.00
    19   1     0.00   0.00   0.00     0.00   0.00   0.00     0.00   0.00   0.00
                     49                     50                     51
                      A                      A                      A
 Frequencies --   3569.1474              3651.9481              3759.9353
 Red. masses --      1.0825                 1.0445                 1.0825
 Frc consts  --      8.1248                 8.2072                 9.0168
 IR Inten    --    131.0534                33.2223                88.9314
  Atom  AN      X      Y      Z        X      Y      Z        X      Y      Z
     1   7     0.00   0.00   0.00     0.00   0.00   0.00     0.00   0.00   0.00
     2   6     0.00   0.00   0.00     0.00   0.00   0.00     0.00   0.00   0.00
     3   6     0.00   0.00   0.00     0.00   0.00   0.00     0.00   0.00   0.00
     4   7    -0.03  -0.07   0.00     0.00   0.00   0.00     0.00   0.00   0.00
     5   6     0.00   0.00   0.00     0.00   0.00   0.00     0.00   0.00   0.00
     6   6     0.00   0.00   0.00     0.00   0.00   0.00     0.00   0.00   0.00
     7   6     0.00   0.00   0.00     0.00   0.00   0.00     0.00   0.00   0.00
     8   6     0.00   0.00   0.00     0.00   0.00   0.00     0.00   0.00   0.00
     9   6     0.00   0.00   0.00     0.00   0.00   0.00     0.00   0.00   0.00
    10   1    -0.01   0.00   0.00    -0.03  -0.01   0.00     0.00   0.00   0.00
    11   1     0.41   0.91   0.00     0.00   0.00   0.00     0.00   0.00   0.00
    12   1    -0.01   0.01   0.00     0.00   0.00   0.00     0.00   0.00   0.00
    13   1     0.00   0.00   0.00     0.00   0.00   0.00     0.00   0.00   0.00
    14   1     0.00   0.00   0.00     0.00   0.00   0.00     0.00   0.00   0.00
    15   1     0.00   0.00   0.00     0.00   0.00   0.00     0.00   0.00   0.00
    16   1     0.00   0.00   0.00     0.00   0.00   0.00     0.00   0.00   0.00
    17   8     0.00   0.00   0.00    -0.05  -0.01   0.00     0.00   0.00   0.07
    18   1     0.00   0.00   0.00     0.38   0.10   0.59    -0.41  -0.11  -0.56
    19   1     0.00   0.00   0.00     0.38   0.10  -0.59     0.41   0.11  -0.56

 -------------------
 - Thermochemistry -
 -------------------
 Temperature   298.150 Kelvin.  Pressure   1.00000 Atm.
 Atom     1 has atomic number  7 and mass  14.00307
 Atom     2 has atomic number  6 and mass  12.00000
 Atom     3 has atomic number  6 and mass  12.00000
 Atom     4 has atomic number  7 and mass  14.00307
 Atom     5 has atomic number  6 and mass  12.00000
 Atom     6 has atomic number  6 and mass  12.00000
 Atom     7 has atomic number  6 and mass  12.00000
 Atom     8 has atomic number  6 and mass  12.00000
 Atom     9 has atomic number  6 and mass  12.00000
 Atom    10 has atomic number  1 and mass   1.00783
 Atom    11 has atomic number  1 and mass   1.00783
 Atom    12 has atomic number  1 and mass   1.00783
 Atom    13 has atomic number  1 and mass   1.00783
 Atom    14 has atomic number  1 and mass   1.00783
 Atom    15 has atomic number  1 and mass   1.00783
 Atom    16 has atomic number  1 and mass   1.00783
 Atom    17 has atomic number  8 and mass  15.99491
 Atom    18 has atomic number  1 and mass   1.00783
 Atom    19 has atomic number  1 and mass   1.00783
 Molecular mass:   137.07149 amu.
 Principal axes and moments of inertia in atomic units:
                           1         2         3
     Eigenvalues --   881.190191765.880182638.39323
           X            0.99993   0.01202   0.00000
           Y           -0.01202   0.99993   0.00000
           Z            0.00000   0.00000   1.00000
 This molecule is an asymmetric top.
 Rotational symmetry number  1.
 Warning -- assumption of classical behavior for rotation
           may cause significant error
 Rotational temperatures (Kelvin)      0.09829     0.04905     0.03283
 Rotational constants (GHZ):           2.04807     1.02201     0.68403
 Zero-point vibrational energy     404307.0 (Joules/Mol)
                                   96.63169 (Kcal/Mol)
 Warning -- explicit consideration of  14 degrees of freedom as
           vibrations may cause significant error
 Vibrational temperatures:     74.72   100.99   226.11   312.22   333.68
          (Kelvin)            366.57   389.97   546.89   582.29   600.80
                              769.45   808.22   831.62   885.06   919.05
                             1066.27  1088.10  1113.05  1162.93  1236.40
                             1253.84  1342.34  1359.34  1428.26  1472.82
                             1510.35  1614.67  1674.29  1690.57  1712.07
                             1802.99  1848.00  1855.46  2014.55  2038.74
                             2095.08  2194.87  2196.90  2250.53  2362.27
                             2365.73  2447.31  4380.35  4582.69  4595.35
                             4607.89  4615.54  4727.31  5135.20  5254.33
                             5409.70
 
 Zero-point correction=                           0.153992 (Hartree/Particle)
 Thermal correction to Energy=                    0.163662
 Thermal correction to Enthalpy=                  0.164607
 Thermal correction to Gibbs Free Energy=         0.118765
 Sum of electronic and zero-point Energies=           -456.605747
 Sum of electronic and thermal Energies=              -456.596077
 Sum of electronic and thermal Enthalpies=            -456.595133
 Sum of electronic and thermal Free Energies=         -456.640975
 
                     E (Thermal)             CV                S
                      KCal/Mol        Cal/Mol-Kelvin    Cal/Mol-Kelvin
 Total                  102.700             36.504             96.483
 Electronic               0.000              0.000              0.000
 Translational            0.889              2.981             40.658
 Rotational               0.889              2.981             29.797
 Vibrational            100.922             30.542             26.028
 Vibration     1          0.596              1.977              4.742
 Vibration     2          0.598              1.968              4.148
 Vibration     3          0.621              1.895              2.584
 Vibration     4          0.646              1.815              1.984
 Vibration     5          0.653              1.792              1.864
 Vibration     6          0.665              1.755              1.697
 Vibration     7          0.675              1.727              1.590
 Vibration     8          0.750              1.513              1.039
 Vibration     9          0.770              1.460              0.945
 Vibration    10          0.781              1.432              0.900
 Vibration    11          0.890              1.173              0.577
 Vibration    12          0.917              1.114              0.520
 Vibration    13          0.935              1.079              0.489
 Vibration    14          0.975              1.000              0.424
                       Q            Log10(Q)             Ln(Q)
 Total Bot       0.235597D-54        -54.627830       -125.785226
 Total V=0       0.159811D+17         16.203606         37.310181
 Vib (Bot)       0.514947D-68        -68.288237       -157.239477
 Vib (Bot)    1  0.397976D+01          0.599857          1.381221
 Vib (Bot)    2  0.293820D+01          0.468082          1.077798
 Vib (Bot)    3  0.128751D+01          0.109751          0.252711
 Vib (Bot)    4  0.912646D+00         -0.039697         -0.091407
 Vib (Bot)    5  0.848529D+00         -0.071333         -0.164251
 Vib (Bot)    6  0.764294D+00         -0.116739         -0.268802
 Vib (Bot)    7  0.712645D+00         -0.147127         -0.338772
 Vib (Bot)    8  0.475634D+00         -0.322727         -0.743106
 Vib (Bot)    9  0.438877D+00         -0.357657         -0.823536
 Vib (Bot)   10  0.421269D+00         -0.375441         -0.864485
 Vib (Bot)   11  0.297708D+00         -0.526209         -1.211642
 Vib (Bot)   12  0.276210D+00         -0.558761         -1.286594
 Vib (Bot)   13  0.264159D+00         -0.578134         -1.331204
 Vib (Bot)   14  0.238949D+00         -0.621694         -1.431504
 Vib (V=0)       0.349300D+03          2.543198          5.855930
 Vib (V=0)    1  0.451104D+01          0.654277          1.506529
 Vib (V=0)    2  0.348044D+01          0.541634          1.247159
 Vib (V=0)    3  0.188119D+01          0.274433          0.631905
 Vib (V=0)    4  0.154064D+01          0.187700          0.432195
 Vib (V=0)    5  0.148489D+01          0.171693          0.395338
 Vib (V=0)    6  0.141332D+01          0.150239          0.345939
 Vib (V=0)    7  0.137055D+01          0.136896          0.315215
 Vib (V=0)    8  0.119009D+01          0.075581          0.174031
 Vib (V=0)    9  0.116529D+01          0.066435          0.152971
 Vib (V=0)   10  0.115381D+01          0.062134          0.143069
 Vib (V=0)   11  0.108192D+01          0.034195          0.078737
 Vib (V=0)   12  0.107122D+01          0.029879          0.068798
 Vib (V=0)   13  0.106549D+01          0.027550          0.063436
 Vib (V=0)   14  0.105416D+01          0.022908          0.052747
 Electronic      0.100000D+01          0.000000          0.000000
 Translational   0.630777D+08          7.799876         17.959878
 Rotational      0.725323D+06          5.860532         13.494373
 ***** Axes restored to original set *****
 -------------------------------------------------------------------
 Center     Atomic                   Forces (Hartrees/Bohr)
 Number     Number              X              Y              Z
 -------------------------------------------------------------------
      1        7           0.000046569    0.000033226    0.000003367
      2        6          -0.000044568    0.000014227   -0.000003372
      3        6           0.000013836   -0.000045515    0.000002534
      4        7           0.000013030    0.000040721   -0.000001929
      5        6          -0.000025191   -0.000029976   -0.000000283
      6        6           0.000008538   -0.000010566   -0.000000917
      7        6           0.000009002   -0.000005099    0.000000201
      8        6          -0.000002655    0.000007932   -0.000000137
      9        6          -0.000012421    0.000004390    0.000001540
     10        1           0.000000223   -0.000016435   -0.000000274
     11        1          -0.000002921   -0.000002965   -0.000000463
     12        1          -0.000000297    0.000002788   -0.000000166
     13        1           0.000000853    0.000001277   -0.000000083
     14        1          -0.000000955    0.000000323    0.000000292
     15        1           0.000001310   -0.000003841   -0.000000369
     16        1           0.000000246   -0.000001477   -0.000000137
     17        8           0.000004089    0.000007371   -0.000000614
     18        1          -0.000004099    0.000001334   -0.000003359
     19        1          -0.000004589    0.000002284    0.000004169
 -------------------------------------------------------------------
 Cartesian Forces:  Max     0.000046569 RMS     0.000014582

 GradGradGradGradGradGradGradGradGradGradGradGradGradGradGradGradGradGrad
 Berny optimization.
 Search for a local minimum.
 Step number   1 out of a maximum of    2
 All quantities printed in internal units (Hartrees-Bohrs-Radians)
 Second derivative matrix not updated -- analytic derivatives used.
 ITU=  0
     Eigenvalues ---    0.00049   0.00067   0.00110   0.00610   0.00660
     Eigenvalues ---    0.00691   0.01247   0.01554   0.01661   0.02149
     Eigenvalues ---    0.02327   0.03368   0.04139   0.04683   0.05419
     Eigenvalues ---    0.05552   0.05723   0.06388   0.06483   0.08197
     Eigenvalues ---    0.08482   0.09166   0.09695   0.13728   0.14330
     Eigenvalues ---    0.17012   0.17381   0.18804   0.20578   0.21299
     Eigenvalues ---    0.22427   0.26723   0.28501   0.30669   0.37670
     Eigenvalues ---    0.53041   0.56233   0.71066   0.79123   0.81713
     Eigenvalues ---    0.84397   0.88566   0.94114   0.99537   1.04039
     Eigenvalues ---    1.13847   1.16956   1.23172   1.27271   1.30190
     Eigenvalues ---    1.36287
 Angle between quadratic step and forces=  82.29 degrees.
 Linear search not attempted -- first point.
 TrRot=  0.000014  0.000023 -0.000003  0.000001  0.000002  0.000001
 Variable       Old X    -DE/DX   Delta X   Delta X   Delta X     New X
                                 (Linear)    (Quad)   (Total)
    X1        2.46635   0.00005   0.00000   0.00012   0.00013   2.46648
    Y1        0.92363   0.00003   0.00000   0.00017   0.00019   0.92383
    Z1       -0.00003   0.00000   0.00000   0.00002   0.00001  -0.00002
    X2        0.13224  -0.00004   0.00000   0.00004   0.00006   0.13230
    Y2       -0.31417   0.00001   0.00000   0.00010   0.00013  -0.31404
    Z2        0.00002   0.00000   0.00000  -0.00002  -0.00003   0.00000
    X3       -1.74110   0.00001   0.00000   0.00003   0.00005  -1.74105
    Y3        1.58874  -0.00005   0.00000  -0.00002   0.00000   1.58874
    Z3       -0.00001   0.00000   0.00000   0.00001   0.00001   0.00000
    X4       -0.42279   0.00001   0.00000  -0.00001  -0.00001  -0.42280
    Y4        3.88225   0.00004   0.00000   0.00011   0.00013   3.88239
    Z4        0.00003   0.00000   0.00000  -0.00004  -0.00005  -0.00002
    X5        2.07983  -0.00003   0.00000  -0.00003  -0.00003   2.07980
    Y5        3.41974  -0.00003   0.00000   0.00010   0.00013   3.41986
    Z5        0.00000   0.00000   0.00000  -0.00002  -0.00003  -0.00003
    X6       -0.48804   0.00001   0.00000   0.00021   0.00023  -0.48781
    Y6       -2.88857  -0.00001   0.00000   0.00005   0.00007  -2.88849
    Z6        0.00005   0.00000   0.00000  -0.00004  -0.00004   0.00001
    X7       -3.06115   0.00001   0.00000   0.00023   0.00025  -3.06090
    Y7       -3.46172  -0.00001   0.00000  -0.00002   0.00000  -3.46172
    Z7        0.00003   0.00000   0.00000  -0.00001   0.00000   0.00002
    X8       -4.93750   0.00000   0.00000   0.00014   0.00016  -4.93734
    Y8       -1.55212   0.00001   0.00000  -0.00006  -0.00005  -1.55217
    Z8       -0.00002   0.00000   0.00000   0.00004   0.00004   0.00002
    X9       -4.32477  -0.00001   0.00000   0.00002   0.00003  -4.32474
    Y9        1.01345   0.00000   0.00000  -0.00004  -0.00003   1.01342
    Z9       -0.00005   0.00000   0.00000   0.00005   0.00006   0.00001
   X10        4.22501   0.00000   0.00000   0.00004   0.00005   4.22506
   Y10        0.00725  -0.00002   0.00000  -0.00004  -0.00001   0.00724
   Z10       -0.00003   0.00000   0.00000   0.00002   0.00001  -0.00003
   X11       -1.20212   0.00000   0.00000  -0.00009  -0.00008  -1.20220
   Y11        5.63917   0.00000   0.00000   0.00007   0.00009   5.63927
   Z11        0.00006   0.00000   0.00000  -0.00008  -0.00008  -0.00002
   X12        3.53844   0.00000   0.00000  -0.00009  -0.00009   3.53835
   Y12        4.85104   0.00000   0.00000   0.00017   0.00020   4.85124
   Z12        0.00001   0.00000   0.00000  -0.00004  -0.00005  -0.00004
   X13        0.96246   0.00000   0.00000   0.00029   0.00031   0.96278
   Y13       -4.34237   0.00000   0.00000   0.00014   0.00016  -4.34221
   Z13        0.00009   0.00000   0.00000  -0.00007  -0.00008   0.00001
   X14       -3.64753   0.00000   0.00000   0.00023   0.00026  -3.64727
   Y14       -5.43131   0.00000   0.00000  -0.00002   0.00000  -5.43131
   Z14        0.00004   0.00000   0.00000  -0.00001  -0.00001   0.00003
   X15       -6.91756   0.00000   0.00000   0.00018   0.00020  -6.91736
   Y15       -2.10208   0.00000   0.00000  -0.00021  -0.00020  -2.10228
   Z15       -0.00003   0.00000   0.00000   0.00005   0.00006   0.00003
   X16       -5.77145   0.00000   0.00000  -0.00001   0.00000  -5.77145
   Y16        2.47189   0.00000   0.00000  -0.00008  -0.00006   2.47183
   Z16       -0.00006   0.00000   0.00000   0.00007   0.00008   0.00001
   X17        6.63841   0.00000   0.00000  -0.00045  -0.00043   6.63798
   Y17       -2.10032   0.00001   0.00000  -0.00009  -0.00006  -2.10037
   Z17        0.00000   0.00000   0.00000  -0.00001  -0.00003  -0.00003
   X18        7.72192   0.00000   0.00000  -0.00076  -0.00074   7.72119
   Y18       -2.38193   0.00000   0.00000  -0.00066  -0.00062  -2.38255
   Z18        1.46702   0.00000   0.00000   0.00009   0.00008   1.46710
   X19        7.72152   0.00000   0.00000  -0.00036  -0.00035   7.72117
   Y19       -2.38248   0.00000   0.00000  -0.00012  -0.00008  -2.38256
   Z19       -1.46722   0.00000   0.00000   0.00008   0.00006  -1.46716
         Item               Value     Threshold  Converged?
 Maximum Force            0.000047     0.000450     YES
 RMS     Force            0.000015     0.000300     YES
 Maximum Displacement     0.000736     0.001800     YES
 RMS     Displacement     0.000182     0.001200     YES
 Predicted change in Energy=-1.045848D-08
 Optimization completed.
    -- Stationary point found.
 GradGradGradGradGradGradGradGradGradGradGradGradGradGradGradGradGradGrad

 1\1\GINC-NID01387\Freq\RTPSSTPSS\6-31G(d)\C7H9N2O1(1+)\PARKSJM\29-Oct-
 2015\0\\# tpsstpss/6-31G(d) freq integral=ultrafine scf=tight\\BzmH.H2
 O\\1,1\N,1.305136,0.488766,-0.000015\C,0.069981,-0.16625,0.000012\C,-0
 .921348,0.840727,-0.000006\N,-0.223731,2.0544,0.000015\C,1.100597,1.80
 9647,0.000002\C,-0.258258,-1.528564,0.000027\C,-1.619892,-1.831862,0.0
 00014\C,-2.612811,-0.821346,-0.000011\C,-2.288569,0.536292,-0.000024\H
 ,2.235778,0.003837,-0.000018\H,-0.636135,2.984122,0.00003\H,1.872462,2
 .567058,0.000006\H,0.509314,-2.297885,0.000045\H,-1.93019,-2.874123,0.
 000021\H,-3.660615,-1.112372,-0.000015\H,-3.054118,1.308069,-0.000034\
 O,3.512894,-1.11144,-0.000001\H,4.086265,-1.260463,0.776314\H,4.086052
 ,-1.260753,-0.776419\\Version=AS64L-G09RevD.01\State=1-A\HF=-456.75973
 95\RMSD=5.830e-09\RMSF=1.458e-05\ZeroPoint=0.1539924\Thermal=0.1636625
 \Dipole=1.8089706,1.1096727,-0.0000592\DipoleDeriv=-0.6545813,0.208189
 6,0.0000066,0.5128039,-0.4039292,-0.0000083,0.0000244,-0.0000083,-0.19
 45419,0.1458528,0.0823412,-0.0000089,0.2478189,0.0719651,-0.0000082,-0
 .0000215,-0.0000089,0.0855197,0.1158656,0.2576071,0.0000076,0.1200315,
 0.1386783,0.0000065,0.0000117,0.0000161,0.0898173,-0.3569323,0.3013152
 ,0.0000045,0.059668,-0.3495288,-0.0000028,0.,-0.0000128,-0.2292011,0.3
 001095,-0.5243611,-0.0000089,-0.58651,0.3428248,0.0000111,-0.0000093,0
[...]
 159,0.00000058,0.03317249,0.79983358,0.00000244,0.00000190,-0.05281795
 ,-0.00000041,-0.00000600,0.13797941,-0.05476780,-0.00223219,-0.0000006
 6,-0.19181974,0.06167492,-0.00000075,0.80257383,0.02634682,0.01228984,
 -0.00000063,0.11390548,-0.19559039,0.00000285,0.02946406,0.58908802,0.
 00000178,0.00000013,0.00648653,-0.00000280,0.00000070,-0.07354131,0.00
 000605,0.,0.13492531,-0.05616574,0.06037558,0.00000199,0.01190999,-0.0
 0339907,-0.00000019,-0.15173828,-0.04999768,-0.00000142,0.72265807,0.0
 4041525,-0.06084769,-0.00000046,0.02627088,-0.05566288,-0.00000156,-0.
 04377189,-0.22689658,-0.00000212,-0.16086517,0.85091822,0.00000083,-0.
 00000155,0.01597162,0.00000023,0.00000048,0.00605486,-0.00000039,-0.00
 000276,-0.04813335,-0.00000409,0.00001125,0.08321470,-0.12766823,0.051
 39123,0.00000018,-0.00667596,-0.03031441,0.00000003,-0.06464384,-0.061
 85479,-0.00000002,-0.37263233,0.04655736,0.00000226,0.79144056,0.04086
 943,-0.39326762,-0.00000276,-0.06591897,-0.06564512,-0.00000001,-0.027
 45081,-0.00485728,-0.00000003,0.04852092,-0.12723875,-0.00000106,0.111
 99360,0.81016956,0.00000077,-0.00000424,-0.05664713,0.00000009,0.00000
 078,0.01086632,-0.00000046,0.00000018,0.01081053,0.00000254,-0.0000015
 1,-0.05291996,-0.00000317,0.00000630,0.12120188,-0.01351530,-0.0440840
 1,0.00000054,-0.11265756,-0.00258692,-0.00000014,0.04445279,0.00828863
 ,0.00000099,-0.00609639,-0.00037678,-0.00000032,-0.00488558,0.00530016
 ,0.00000006,0.70449863,-0.02190679,-0.01180428,0.00000052,-0.04413773,
 -0.32585520,0.00000290,0.04003720,-0.03465494,0.00000144,-0.00096029,-
 0.00769212,-0.00000028,0.00667885,0.00879497,-0.00000016,-0.05529203,0
 .69028181,0.00000018,0.00000076,-0.00254502,0.00000020,0.00000368,-0.0
 5116700,0.00000016,0.00000057,0.00527138,-0.00000033,-0.00000006,0.002
 12899,0.00000024,-0.00000044,0.00239875,0.00000608,-0.00000817,0.12065
 315,0.01560583,0.01059120,-0.00000056,-0.01531956,-0.07521611,0.000000
 82,-0.04910835,0.00570712,-0.00000099,0.00479336,0.01013725,0.00000038
 ,-0.00629751,-0.00861758,0.00000006,-0.33990365,-0.01918281,-0.0000027
 3,0.66277856,-0.00189798,-0.00710559,0.00000017,-0.03760473,0.00117424
 ,-0.00000005,0.01628767,-0.00122803,0.00000036,-0.00494042,-0.00408847
 ,-0.00000003,0.00297657,-0.00036319,0.,-0.07520495,-0.13363566,-0.0000
 0018,0.03957437,0.70590594,0.00000018,0.00000023,0.00554448,0.00000018
 ,-0.00000046,0.00360876,-0.00000053,-0.00000005,-0.00518610,0.00000017
 ,0.00000016,-0.00110534,-0.00000008,0.00000004,0.00086219,-0.00000269,
 0.00000024,-0.05535027,0.00000636,-0.00000634,0.13000944,-0.00373915,-
 0.00492446,0.00000001,-0.00091321,0.01515671,-0.00000036,-0.00100048,-
 0.03794534,0.00000018,-0.00659188,-0.00113244,-0.00000019,-0.00104497,
 0.00306727,0.,-0.04507815,0.00834947,-0.00000059,-0.20891676,0.1175229
 8,-0.00000340,0.70694411,0.01016991,0.00586709,-0.00000037,0.00478326,
 -0.04904814,0.00000087,-0.07643908,-0.01297573,-0.00000095,0.00940628,
 0.01536547,0.00000057,-0.00676781,-0.00772913,-0.00000002,0.04553454,0
 .04646598,0.00000014,0.05681541,-0.21221769,0.00000286,0.03745508,0.66
 002572,-0.00000017,-0.00000019,-0.00122058,0.00000006,0.00000058,-0.00
 520453,0.00000042,-0.00000030,0.00345532,-0.00000018,-0.00000013,0.005
 34863,-0.00000008,0.00000012,0.00092771,-0.00000115,-0.00000039,0.0057
 5823,-0.00000248,0.00000349,-0.06040171,0.00000522,-0.00000647,0.12999
 775,-0.00770323,-0.00160692,0.00000026,-0.03393341,0.04105992,-0.00000
 143,-0.32738328,-0.04121321,-0.00000338,-0.01019145,-0.02115210,-0.000
 00048,0.00697001,0.00764467,0.00000008,-0.02512767,-0.02714844,-0.0000
 0006,0.04719812,0.00655547,0.00000024,-0.13394662,-0.02135149,-0.00000
 006,0.68959236,0.00087860,-0.00621754,0.00000040,0.00885482,0.04342851
 ,-0.00000092,0.00219567,-0.11177596,0.00000029,-0.04328994,-0.01252254
 ,-0.00000066,0.00371788,-0.00434877,-0.00000010,-0.02653018,-0.0242567
 4,-0.00000007,0.04386052,-0.04569251,0.00000112,-0.07812087,-0.3362435
 9,0.00000267,-0.05613073,0.69985217,0.00000005,0.00000015,0.00226648,-
 0.00000047,0.00000005,0.00546684,-0.00000406,-0.00000029,-0.04975507,-
 0.00000047,-0.00000016,-0.00278806,0.00000034,-0.00000013,0.00202880,0
 .,0.00000003,-0.00321435,-0.00000018,0.00000048,0.00581850,0.00000031,
 0.00000247,-0.05490392,0.00000684,-0.00000440,0.11800047,-0.28319773,0
 .10234448,0.00000084,-0.01488832,0.00558511,-0.00000002,-0.00274537,-0
 .00385834,-0.00000004,0.00824948,-0.00777279,-0.00000016,0.00919670,0.
 00814724,0.00000007,0.00250471,-0.00038250,0.00000002,-0.00025595,0.00
 077295,-0.00000001,0.00016440,0.00004811,0.,-0.00025048,0.00111825,0.0
 0000001,0.27667575,0.10161423,-0.12277596,-0.00000039,-0.01179131,0.02
 119627,-0.00000022,-0.00541284,-0.00195460,0.00000018,-0.00389780,-0.0
 0386101,-0.00000004,0.02549871,-0.01026354,0.00000001,-0.00043729,0.00
 106871,-0.00000008,0.00024289,-0.00062617,0.,0.00001704,0.00015834,0.,
 -0.00036374,0.00127948,0.,-0.10030031,0.11989855,0.00000006,0.00000024
 ,-0.02458420,0.00000025,-0.00000033,-0.00250986,0.,0.00000009,0.002635
 86,-0.00000018,0.00000004,0.00367489,0.00000057,-0.00000055,-0.0054497
 0,0.00000004,0.,-0.00121305,-0.00000003,0.,-0.00009697,0.,-0.00000004,
 -0.00034736,0.00000005,-0.00000002,0.00064532,0.00000066,0.00000130,0.
 03827891,-0.00758391,0.00028859,0.00000007,-0.00298070,-0.00481813,-0.
 00000008,0.01739185,-0.01332355,-0.00000006,-0.13201818,0.13190816,0.0
 0000210,-0.00271012,0.03154492,0.00000027,0.00112784,-0.00041257,0.000
 00001,0.00025533,0.00000493,0.,-0.00037233,0.00027872,0.00000002,0.001
 02459,0.00010718,0.00000002,0.00122845,0.00073132,0.00000005,0.1260009
 2,-0.00395462,0.00434865,0.00000007,-0.00399038,-0.00451990,-0.0000001
 1,0.01322924,-0.01276663,0.00000008,0.13809934,-0.37958992,-0.00000607
 ,0.00068104,0.00317341,0.00000017,0.00183156,-0.00027856,0.,-0.0001520
 3,0.00024112,0.,0.00032192,-0.00040281,0.00000003,0.00008907,0.0020922
 2,0.,0.00090643,0.00000704,-0.00000008,-0.14587733,0.38733919,-0.00000
 007,-0.00000002,0.00380236,0.00000004,0.00000015,0.00259460,0.00000031
 ,0.00000010,-0.00429460,0.00000193,-0.00000598,-0.00996750,0.00000018,
 -0.00000010,-0.00635017,-0.00000002,-0.00000004,0.00076521,0.00000006,
 -0.00000001,-0.00035924,0.,0.00000006,-0.00004870,-0.00000003,-0.00000
 005,-0.00110855,0.00000002,-0.00000003,0.00276810,-0.00000237,0.000005
 90,0.01386843,0.01307374,0.00749860,-0.00000011,-0.00045796,0.00301428
 ,0.00000004,-0.00330773,0.00430303,0.00000011,-0.01355322,-0.02234793,
 -0.00000027,-0.21717375,-0.15163328,-0.00000024,0.00078841,-0.00042820
 ,0.00000002,0.00034957,0.00022152,0.,-0.00064386,0.00054266,-0.0000000
 3,0.00014402,-0.00150740,0.00000003,0.00064213,-0.00059594,-0.00000003
 ,0.00015049,-0.00000174,-0.00000002,0.22006006,-0.02295542,-0.01306973
 ,0.00000023,0.00412567,-0.00365854,-0.00000021,0.00301738,-0.00092846,
 -0.00000004,0.00920006,0.01348503,0.00000019,-0.15248570,-0.21107109,-
 0.00000148,-0.00154417,0.00020719,-0.00000002,0.00047114,-0.00067457,0
 .00000003,0.00027754,0.00025340,0.,-0.00035789,0.00090755,-0.00000004,
 -0.00036550,0.00037183,0.00000004,-0.00054388,0.00044247,0.00000003,0.
 16106179,0.21368059,-0.00000046,-0.00000006,-0.00003044,0.00000015,0.0
 0000001,0.00402779,0.00000001,-0.00000019,0.00325975,0.00000010,0.0000
 0040,-0.00004212,-0.00000029,-0.00000148,-0.02649825,-0.00000003,0.000
 00004,0.00203403,0.,-0.00000003,-0.00018541,0.00000004,-0.00000004,-0.
 00010343,-0.00000001,0.00000007,0.00210903,0.00000001,-0.00000004,-0.0
 0226463,-0.00000002,0.00000003,-0.00203942,0.00000051,0.00000125,0.020
 35459,0.00058247,0.00117887,0.00000005,0.01046233,-0.00866403,0.000000
 14,-0.00031439,-0.00198483,-0.00000005,0.00036226,-0.00087026,-0.00000
 001,0.00046063,0.00002436,0.,-0.19876661,0.14281611,-0.00000337,-0.014
 53655,0.02286826,-0.00000043,-0.00427741,-0.00316703,-0.00000009,-0.00
 031303,-0.00074931,0.00000002,0.00026548,-0.00026572,0.00000003,-0.000
 15325,-0.00025391,-0.00000001,-0.00002063,0.00001160,0.,0.20604508,0.0
 0019828,0.00291731,-0.00000004,0.02235562,-0.01738075,0.00000047,-0.00
 344371,-0.00249494,0.00000006,0.00077245,-0.00124350,0.00000001,0.0007
 3531,-0.00098211,-0.00000003,0.14208794,-0.20271040,0.00000364,-0.0068
 2347,0.01092408,-0.00000013,-0.00240394,0.00016087,0.00000009,-0.00062
 562,-0.00033227,-0.00000002,-0.00008391,-0.00122785,0.00000004,-0.0003
 7526,-0.00030430,0.,-0.00003245,0.00001259,0.,-0.15252602,0.21105689,-
 0.00000004,-0.00000008,-0.00281021,-0.00000019,-0.00000020,0.00249823,
 -0.00000006,0.00000012,0.00556637,-0.00000005,0.00000008,0.00027065,-0
 .00000004,-0.00000002,-0.00031710,-0.00000328,0.00000404,-0.03394440,-
 0.00000030,0.00000010,0.00302319,-0.00000006,-0.00000010,0.00765562,0.
 00000016,0.00000005,-0.00056391,0.,0.00000004,0.00009132,0.00000002,0.
 ,0.00034488,0.,0.,0.00010019,0.00000366,-0.00000400,0.02413058,0.00019
 063,-0.00205351,-0.00000004,-0.00572549,-0.00006948,-0.00000005,-0.001
 37122,0.00009891,-0.00000003,0.00054186,-0.00002017,0.,-0.00085127,0.0
 0018047,0.00000003,-0.00544760,-0.03045603,0.00000026,-0.08097152,-0.0
 7733005,0.00000019,0.00987640,0.02319990,-0.00000023,-0.00327885,0.003
 27276,-0.00000014,0.00024368,-0.00013057,0.,-0.00006072,-0.00000624,0.
 ,0.00010638,-0.00015386,0.,0.00124843,0.00030857,0.00000006,0.08424613
 ,0.00010402,0.00000212,0.,-0.00052053,0.00132532,0.00000006,0.00077302
 ,0.00061436,0.,0.00000068,-0.00002411,0.,-0.00012120,0.00011746,0.,0.0
 0013883,-0.00164733,0.00000007,-0.07764091,-0.31841803,0.00000209,-0.0
 0783657,-0.01624219,0.00000015,0.00349996,-0.00117922,0.00000010,0.000
 05999,-0.00005703,0.,0.00002985,0.00002126,0.,-0.00000065,0.00001292,0
 .,-0.00013637,0.00069746,-0.00000005,0.08213748,0.33471324,0.00000001,
 -0.00000011,0.00128893,-0.00000010,0.00000010,0.00707296,-0.00000002,-
 0.00000004,-0.00031862,0.00000003,0.,-0.00026059,-0.00000004,0.0000000
 4,-0.00051781,-0.00000003,-0.00000025,0.00321402,0.00000023,0.00000200
 ,-0.03679886,0.00000013,0.00000070,0.00289026,-0.00000024,0.00000005,0
 .00555558,0.,0.,0.00017075,0.,0.,0.00001819,0.,0.,-0.00040116,0.000000
 07,-0.00000008,-0.00443758,-0.00000011,-0.00000237,0.02572706,-0.00005
 566,0.00000574,0.,0.00062868,0.00075417,0.00000001,0.00128795,-0.00061
 968,-0.00000003,-0.00001482,0.00013744,0.,0.00013038,-0.00011612,0.,-0
 .00110274,0.00348332,-0.00000010,-0.01584844,-0.00738626,-0.00000010,-
 0.32133274,-0.07336033,-0.00000134,-0.00217728,0.00014938,-0.00000006,
 0.00004560,0.00001216,0.,-0.00002416,0.00000120,0.,0.00001033,-0.00000
 112,0.,-0.00080747,-0.00046641,0.,0.00089401,0.00002714,0.00000003,0.3
 3767416,-0.00004995,0.00056898,0.,0.00007827,-0.00136729,0.00000002,-0
 .00021437,-0.00568345,0.00000009,-0.00215877,0.00028693,0.00000002,0.0
 0021419,-0.00087447,-0.00000003,0.00324154,-0.00344538,0.00000018,0.02
 358299,0.00966300,0.00000017,-0.07287874,-0.07814811,0.00000005,-0.030
 37405,-0.00512587,-0.00000021,0.00007585,-0.00011186,0.,-0.00003845,0.
 00007344,0.,-0.00014604,0.00011017,0.,0.00124458,0.00045509,0.,-0.0003
 1938,0.00089941,-0.00000008,0.07750541,0.08138161,0.00000001,0.,-0.000
 25882,0.00000004,0.,-0.00039659,-0.00000003,0.00000011,0.00689904,0.00
 000006,-0.00000004,0.00133484,-0.00000002,0.00000002,-0.00044583,-0.00
 000004,0.00000027,0.00560053,-0.00000073,-0.00000009,0.00300507,-0.000
 00116,-0.00000002,-0.03674279,0.00000025,0.,0.00322011,0.,0.,0.0000287
 7,0.,0.,0.00017179,0.,0.,-0.00042769,-0.00000004,-0.00000002,0.0000884
 6,0.00000007,-0.00000004,-0.00332437,0.00000154,-0.00000015,0.02565377
 ,-0.00146292,0.00077642,-0.00000004,-0.00242521,-0.00352084,-0.0000000
 2,-0.01696678,0.02233621,-0.00000030,0.00299924,0.00051341,0.00000002,
 -0.00103752,0.00075549,0.00000003,-0.00037435,-0.00061668,0.00000002,0
 .00013433,-0.00241315,-0.00000004,0.01094525,-0.00708578,0.00000009,-0
 .20056463,0.14200893,-0.00000224,-0.00004341,-0.00049371,0.,-0.0008996
 3,-0.00058077,-0.00000002,0.00001948,-0.00003975,0.,0.00008037,0.00015
 608,0.00000001,0.00045352,-0.00047527,0.00000002,0.00073068,0.00024982
 ,0.00000005,0.20851950,-0.00101867,0.00037458,0.,-0.00192153,-0.000252
 33,0.,-0.00854720,0.00991577,-0.00000012,0.00113215,0.00109395,-0.0000
 0001,0.00013632,0.00049792,0.,-0.00075240,-0.00031052,-0.00000002,-0.0
 0332799,-0.00425839,0.00000006,0.02310757,-0.01531401,0.00000028,0.141
 48720,-0.19966401,0.00000197,-0.00011577,-0.00017758,0.00000001,0.0002
 4460,-0.00016449,0.,0.00001386,-0.00002927,0.,0.00013712,0.00007930,0.
 ,0.00126099,-0.00085806,0.00000005,-0.00011921,0.00126128,-0.00000004,
 -0.15168468,0.20775929,-0.00000008,0.00000007,0.00039511,-0.00000017,-
 0.00000004,0.00551640,-0.00000002,0.00000024,0.00201176,0.00000008,0.0
 0000008,-0.00260966,0.00000001,0.00000004,-0.00033962,-0.00000002,-0.0
 0000013,-0.00056794,0.00000008,0.00000012,0.00756063,-0.00000013,0.000
 00034,0.00293877,-0.00000218,0.00000159,-0.03273938,0.,-0.00000003,0.0
 0030722,-0.00000003,-0.00000002,0.00000137,0.,0.,0.00008128,0.00000001
 ,-0.00000002,-0.00132478,-0.00000001,0.00000001,0.00012549,0.00000003,
 -0.00000006,-0.00440298,0.00000241,-0.00000219,0.02305497,-0.01433204,
 0.01349303,0.00000088,0.00107674,0.00237819,-0.00000008,-0.00041861,0.
 00025543,0.00000001,-0.00219905,0.00199284,0.00000003,-0.00164951,-0.0
 0391181,-0.00000004,-0.00030094,-0.00048076,0.00000002,0.00007527,0.00
 013102,0.,-0.00005522,-0.00003843,0.,-0.00007830,0.00014152,0.,-0.0001
 5306,0.00269179,-0.00000270,-0.00026716,-0.00035395,-0.00000002,-0.000
 22751,0.00018570,0.00000002,-0.00014312,0.00014160,0.,-0.00006252,-0.0
 0003204,0.,-0.00005225,0.00000471,0.,-0.00008941,-0.00001479,0.,0.4214
 8023,0.01107975,-0.00494997,0.00000032,-0.00088206,-0.00345825,0.00000
 003,0.00071350,-0.00001533,-0.00000005,0.00167562,-0.00092390,-0.00000
 006,0.00011024,0.00336425,0.00000014,0.00056028,-0.00077939,0.,0.00002
 406,0.00043401,0.,-0.00001164,0.00011034,0.,-0.00014720,-0.00010091,0.
 ,-0.00058447,-0.00793399,-0.00000114,0.00011669,0.00027339,-0.00000001
 ,-0.00019399,0.00018812,0.00000004,0.00025362,0.00010575,0.00000001,0.
 00012049,0.00002633,0.,-0.00001597,0.00007219,0.,0.00009800,0.00004560
 ,0.,-0.12556389,0.04990563,0.00000125,0.00000028,0.00658955,0.00000014
 ,-0.00000016,-0.00017832,0.00000005,0.,-0.00015140,0.,0.00000003,-0.00
 014399,-0.00000011,0.00000010,0.00034840,0.,-0.00000011,0.00027192,0.,
 0.00000004,0.00010639,-0.00000001,0.,0.00000520,0.,-0.00000001,-0.0000
 2709,-0.00000270,-0.00000121,-0.01542036,0.,0.,-0.00026793,0.,0.,-0.00
 008909,0.00000005,0.00000012,-0.00060261,0.,0.,-0.00003700,0.,0.,-0.00
 001991,0.,0.,-0.00002341,0.00005652,0.00012787,0.64539174,-0.00130619,
 0.00210358,0.00064906,0.00019713,0.00025055,-0.00008987,-0.00006025,0.
 00004586,-0.00002455,-0.00015641,0.00018846,-0.00001947,-0.00046388,-0
 .00019985,0.00008240,-0.00005788,0.00001985,0.00007995,-0.00001604,-0.
 00006904,0.00003649,-0.00000870,-0.00001195,-0.00000322,0.00000955,0.0
 0001146,0.00000092,0.00115788,-0.00355932,-0.00262981,-0.00005466,0.00
 000559,-0.00004645,0.00002001,0.00004823,-0.00002240,-0.00008728,0.000
 01251,-0.00019498,-0.00001593,-0.00000371,-0.00001262,0.00000689,-0.00
 000880,-0.00000607,-0.00000925,-0.00000879,-0.00000392,-0.20135742,0.0
 5628687,-0.22944361,0.18838285,0.00252524,-0.00179768,-0.00119890,0.00
 011804,-0.00015382,-0.00004532,0.00005969,-0.00004287,0.00005431,0.000
 16312,-0.00027914,-0.00000273,0.00042640,0.00026191,0.00003802,-0.0000
 8735,0.00012588,0.00001913,-0.00002303,-0.00001701,0.00001793,-0.00001
 079,-0.00004292,-0.00000876,0.00006755,-0.00005000,0.00000500,-0.00279
 767,0.00250604,0.00401294,0.00006712,0.00000721,0.00004256,0.00011596,
 -0.00012012,0.00006431,0.00004153,0.00013339,-0.00015838,-0.00002012,-
 0.00000196,-0.00000215,0.00000456,-0.00000783,-0.00000184,0.00000814,0
 .00000048,0.00000579,0.05446601,-0.01816292,0.05616866,-0.05103650,0.0
 1664053,0.00253970,-0.00163167,-0.00058297,-0.00027352,-0.00036781,0.0
 0006471,0.00006917,-0.00003371,0.00002930,0.00037188,-0.00027421,-0.00
 001431,0.00003303,0.00059869,0.00002050,0.00001700,0.00008308,-0.00004
 710,-0.00000392,-0.00001190,-0.00002738,0.00001807,0.00001620,-0.00000
 224,0.00000564,-0.00001754,-0.00000540,-0.00509660,0.00349345,0.001642
 22,0.00004220,0.00003764,0.00005059,-0.00001610,0.00000456,0.00005751,
 -0.00018910,-0.00011867,0.00011556,0.00000901,0.00000815,0.00001637,0.
 00000850,0.00000100,0.00000830,0.00001590,0.00000138,0.00000739,-0.169
 88092,0.04315860,-0.31784062,0.20199416,-0.05197396,0.34504778,-0.0013
 0715,0.00210389,-0.00064942,0.00019722,0.00025086,0.00008991,-0.000060
 30,0.00004587,0.00002456,-0.00015652,0.00018848,0.00001951,-0.00046382
 ,-0.00020010,-0.00008248,-0.00005796,0.00002003,-0.00007999,-0.0000160
 5,-0.00006914,-0.00003651,-0.00000869,-0.00001196,0.00000322,0.0000095
 7,0.00001145,-0.00000092,0.00116006,-0.00355958,0.00263107,-0.00005467
 ,0.00000558,0.00004647,0.00002002,0.00004820,0.00002237,-0.00008731,0.
 00001243,0.00019508,-0.00001593,-0.00000371,0.00001263,0.00000690,-0.0
 0000881,0.00000607,-0.00000926,-0.00000879,0.00000391,-0.20124613,0.05
 636011,0.22938840,0.01381957,-0.00408790,-0.02966410,0.18827045,0.0025
 2463,-0.00179651,0.00119874,0.00011832,-0.00015373,0.00004532,0.000059
 73,-0.00004282,-0.00005431,0.00016293,-0.00027898,0.00000273,0.0004262
 1,0.00026158,-0.00003804,-0.00008741,0.00012596,-0.00001912,-0.0000230
 0,-0.00001706,-0.00001793,-0.00001079,-0.00004290,0.00000876,0.0000675
 5,-0.00005002,-0.00000499,-0.00279715,0.00250334,-0.00401253,0.0000671
 0,0.00000720,-0.00004257,0.00011591,-0.00012008,-0.00006432,0.00004144
 ,0.00013338,0.00015840,-0.00002013,-0.00000196,0.00000215,0.00000457,-
 0.00000783,0.00000184,0.00000813,0.00000048,-0.00000579,0.05451383,-0.
 01820098,-0.05629561,-0.00407498,0.00100084,0.00702672,-0.05109689,0.0
 1668008,-0.00254051,0.00163163,-0.00058310,0.00027343,0.00036791,0.000
 06468,-0.00006919,0.00003372,0.00002932,-0.00037189,0.00027421,-0.0000
 1429,-0.00003301,-0.00059876,0.00002048,-0.00001699,-0.00008304,-0.000
 04710,0.00000391,0.00001189,-0.00002738,-0.00001807,-0.00001620,-0.000
 00224,-0.00000564,0.00001755,-0.00000540,0.00509789,-0.00349296,0.0016
 4279,-0.00004221,-0.00003764,0.00005059,0.00001609,-0.00000455,0.00005
 749,0.00018908,0.00011857,0.00011553,-0.00000901,-0.00000815,0.0000163
 8,-0.00000850,-0.00000100,0.00000830,-0.00001590,-0.00000138,0.0000073
 9,0.16982632,-0.04328574,-0.31791146,0.02965398,-0.00703662,-0.0285402
 1,-0.20192978,0.05211056,0.34511823\\-0.00004657,-0.00003323,-0.000003
 37,0.00004457,-0.00001423,0.00000337,-0.00001384,0.00004551,-0.0000025
 3,-0.00001303,-0.00004072,0.00000193,0.00002519,0.00002998,0.00000028,
 -0.00000854,0.00001057,0.00000092,-0.00000900,0.00000510,-0.00000020,0
 .00000266,-0.00000793,0.00000014,0.00001242,-0.00000439,-0.00000154,-0
 .00000022,0.00001643,0.00000027,0.00000292,0.00000296,0.00000046,0.000
 00030,-0.00000279,0.00000017,-0.00000085,-0.00000128,0.00000008,0.0000
 0095,-0.00000032,-0.00000029,-0.00000131,0.00000384,0.00000037,-0.0000
 0025,0.00000148,0.00000014,-0.00000409,-0.00000737,0.00000061,0.000004
 10,-0.00000133,0.00000336,0.00000459,-0.00000228,-0.00000417\\\@


 FROM WHENCE IT HAPPENS, THAT THEY WHICH TRUST TO BOOKS, DO AS THEY THAT CAST UP MANY LITTLE SUMMS INTO GREATER,
 WITHOUT CONSIDERING WETHER THOSE LITTLE SUMMES WERE RIGHTLY CAST UP OR NOT...
 AND AT LAST FINDING THE ERROUR VISIBLE, AND NOT MISTRUSTING THEIR FIRST GROUNDS,
 KNOW NOT WHICH WAY TO CLEERE THEMSELVES...
 BUT SPEND TIME IN FLUTTERING OVER THEIR BOOKES....
 AS BIRDS THAT ENTERING BY THE CHIMNEY, AND FINDING THEMSELVES INCLOSED IN A CHAMBER,
 FLUTTER AT THE FALSE LIGHT OF A GLASSE WINDOW,
 FOR WANT OF WIT TO CONSIDER WHICH WAY THEY CAME IN....
           LEVIATHAN
 Job cpu time:       0 days  0 hours  1 minutes  8.7 seconds.
 File lengths (MBytes):  RWF=     69 Int=      0 D2E=      0 Chk=      3 Scr=      1
 Normal termination of Gaussian 09 at Thu Oct 29 07:16:42 2015.
