 Entering GApplication 60298303 resources: utime ~78142s, stime ~1397s, Rss ~7551236, inblocks ~13019319, outblocks ~4869440
freq.com
 Output=/global/homes/p/parksjm/tpss/H2O.Co.1.Corrin.H2O/H2O.Co.1.Corrin.H2O.tpss.631gs.freq.log
 Initial command:
 /usr/common/usg/g09/d1/g09/l1.exe "/scratch/scratchdirs/parksjm/g09/13504660.hopque01/Gau-6240.inp" -scrdir="/scratch/scratchdirs/parksjm/g09/13504660.hopque01/"
 Entering Link 1 = /usr/common/usg/g09/d1/g09/l1.exe PID=      6241.
  
 Copyright (c) 1988,1990,1992,1993,1995,1998,2003,2009,2013,
            Gaussian, Inc.  All Rights Reserved.
  
 This is part of the Gaussian(R) 09 program.  It is based on
 the Gaussian(R) 03 system (copyright 2003, Gaussian, Inc.),
 the Gaussian(R) 98 system (copyright 1998, Gaussian, Inc.),
 the Gaussian(R) 94 system (copyright 1995, Gaussian, Inc.),
 the Gaussian 92(TM) system (copyright 1992, Gaussian, Inc.),
 the Gaussian 90(TM) system (copyright 1990, Gaussian, Inc.),
 the Gaussian 88(TM) system (copyright 1988, Gaussian, Inc.),
 the Gaussian 86(TM) system (copyright 1986, Carnegie Mellon
 University), and the Gaussian 82(TM) system (copyright 1983,
 Carnegie Mellon University). Gaussian is a federally registered
 trademark of Gaussian, Inc.
  
 This software contains proprietary and confidential information,
 including trade secrets, belonging to Gaussian, Inc.
  
 This software is provided under written license and may be
 used, copied, transmitted, or stored only in accord with that
 written license.
  
 The following legend is applicable only to US Government
 contracts under FAR:
  
                    RESTRICTED RIGHTS LEGEND
  
 Use, reproduction and disclosure by the US Government is
 subject to restrictions as set forth in subparagraphs (a)
 and (c) of the Commercial Computer Software - Restricted
 Rights clause in FAR 52.227-19.
  
 Gaussian, Inc.
 340 Quinnipiac St., Bldg. 40, Wallingford CT 06492
  
  
 ---------------------------------------------------------------
 Warning -- This program may not be used in any manner that
 competes with the business of Gaussian, Inc. or will provide
 assistance to any competitor of Gaussian, Inc.  The licensee
 of this program is prohibited from giving any competitor of
 Gaussian, Inc. access to this program.  By using this program,
 the user acknowledges that Gaussian, Inc. is engaged in the
 business of creating and licensing software in the field of
 computational chemistry and represents and warrants to the
 licensee that it is not a competitor of Gaussian, Inc. and that
 it will not use this program in any manner prohibited above.
 ---------------------------------------------------------------
  

 Cite this work as:
 Gaussian 09, Revision D.01,
 M. J. Frisch, G. W. Trucks, H. B. Schlegel, G. E. Scuseria, 
 M. A. Robb, J. R. Cheeseman, G. Scalmani, V. Barone, B. Mennucci, 
 G. A. Petersson, H. Nakatsuji, M. Caricato, X. Li, H. P. Hratchian, 
 A. F. Izmaylov, J. Bloino, G. Zheng, J. L. Sonnenberg, M. Hada, 
 M. Ehara, K. Toyota, R. Fukuda, J. Hasegawa, M. Ishida, T. Nakajima, 
 Y. Honda, O. Kitao, H. Nakai, T. Vreven, J. A. Montgomery, Jr., 
 J. E. Peralta, F. Ogliaro, M. Bearpark, J. J. Heyd, E. Brothers, 
 K. N. Kudin, V. N. Staroverov, T. Keith, R. Kobayashi, J. Normand, 
 K. Raghavachari, A. Rendell, J. C. Burant, S. S. Iyengar, J. Tomasi, 
 M. Cossi, N. Rega, J. M. Millam, M. Klene, J. E. Knox, J. B. Cross, 
 V. Bakken, C. Adamo, J. Jaramillo, R. Gomperts, R. E. Stratmann, 
 O. Yazyev, A. J. Austin, R. Cammi, C. Pomelli, J. W. Ochterski, 
 R. L. Martin, K. Morokuma, V. G. Zakrzewski, G. A. Voth, 
 P. Salvador, J. J. Dannenberg, S. Dapprich, A. D. Daniels, 
 O. Farkas, J. B. Foresman, J. V. Ortiz, J. Cioslowski, 
 and D. J. Fox, Gaussian, Inc., Wallingford CT, 2013.
 
 ******************************************
 Gaussian 09:  AS64L-G09RevD.01 24-Apr-2013
                29-Oct-2015 
 ******************************************
 %nproc=24
 Will use up to   24 processors via shared memory.
 %chk=H2O.Co.1.Corrin.H2O.chk
 %mem=7000mb
 -----------------------------------------------------
 # tpsstpss/6-31G(d) freq integral=ultrafine scf=tight
 -----------------------------------------------------
 1/10=4,30=1,38=1/1,3;
 2/12=2,17=6,18=5,40=1/2;
 3/5=1,6=6,7=1,11=2,16=1,25=1,30=1,71=2,74=2523,75=-5,140=1/1,2,3;
 4//1;
 5/5=2,32=2,38=5,98=1/2;
 8/6=4,10=90,11=11/1;
 11/6=1,8=1,9=11,15=111,16=1/1,2,10;
 10/6=1/2;
 6/7=2,8=2,9=2,10=2,18=1,28=1/1;
 7/8=1,10=1,25=1/1,2,3,16;
 1/10=4,30=1/3;
 99//99;
 -------------------
 H2O.Co.1.Corrin.H2O
 -------------------
 Symbolic Z-matrix:
 Charge =  0 Multiplicity = 1
 O                     1.09214   1.17044  -2.8294 
 H                     0.69093   0.75316  -2.02775 
 H                     1.146     2.10555  -2.55004 
 Co                   -0.13115  -0.00636  -0.00014 
 N                    -1.53051  -1.2681   -0.06115 
 C                    -1.37068  -2.65613  -0.08024 
 C                    -2.69804  -3.35789   0.13773 
 C                    -3.72282  -2.24277  -0.13205 
 C                    -2.87357  -0.98951  -0.04089 
 C                    -0.1762   -3.31779  -0.24453 
 C                     1.05606  -2.63941  -0.36756 
 N                     1.11963  -1.31343  -0.27483 
 C                     2.53471  -0.86294  -0.44753 
 C                     3.36942  -2.12087  -0.15031 
 C                     2.42124  -3.26231  -0.59102 
 C                     2.6416    0.34695   0.47125 
 N                     1.33374   1.04796   0.28304 
 C                     1.51665   2.36499   0.35626 
 C                     2.97065   2.72776   0.59709 
 C                     3.69489   1.42801   0.17194 
 C                    -3.40169   0.29559  -0.00541 
 C                    -2.64986   1.46259   0.02452 
 N                    -1.27731   1.49072   0.04862 
 C                    -0.86563   2.82417   0.03926 
 C                    -2.04163   3.7544   -0.19599 
 C                    -3.25331   2.85222   0.09654 
 C                     0.43233   3.25778   0.1998 
 H                     2.65718  -0.52913  -1.49049 
 H                     2.68906   0.00317   1.51705 
 H                    -4.48632   0.39447  -0.00768 
 H                     0.62485   4.32911   0.19883 
 H                    -0.18353  -4.4058   -0.25636 
 H                     3.89716   1.45382  -0.90831 
 H                     4.64029   1.26357   0.70237 
 H                    -4.55983  -2.23362   0.57774 
 H                     3.28674   3.61151   0.027 
 H                    -2.04615   4.0862   -1.24637 
 H                     3.14069   2.95029   1.66388 
 H                    -4.08142   2.98613  -0.61089 
 H                     3.55998  -2.19288   0.92975 
 H                     4.33106  -2.1287   -0.67708 
 H                     2.56031  -3.50953  -1.65667 
 H                     2.55869  -4.18922  -0.01923 
 H                    -1.99438   4.65292   0.4313 
 H                    -2.81597  -4.23559  -0.5092 
 H                    -3.65335   3.03781   1.10649 
 H                    -2.76167  -3.70581   1.18073 
 H                    -4.15259  -2.33147  -1.14277 
 O                     0.73916  -1.11296   2.89716 
 H                     0.3285   -0.31455   3.28328 
 H                     0.49068  -1.02857   1.94302 
 

 GradGradGradGradGradGradGradGradGradGradGradGradGradGradGradGradGradGrad
 Berny optimization.
 Initialization pass.
 Trust Radius=3.00D-01 FncErr=1.00D-07 GrdErr=1.00D-07
 Number of steps in this run=      2 maximum allowed number of steps=      2.
 GradGradGradGradGradGradGradGradGradGradGradGradGradGradGradGradGradGrad

 Stoichiometry    C19H25CoN4O2
 Framework group  C1[X(C19H25CoN4O2)]
 Deg. of freedom   147
 Full point group                 C1      NOp   1
 Largest Abelian subgroup         C1      NOp   1
 Largest concise Abelian subgroup C1      NOp   1
                         Standard orientation:                         
 ---------------------------------------------------------------------
 Center     Atomic      Atomic             Coordinates (Angstroms)
 Number     Number       Type             X           Y           Z
 ---------------------------------------------------------------------
      1          8           0        1.092137    1.170442   -2.829399
      2          1           0        0.690926    0.753161   -2.027750
      3          1           0        1.145997    2.105553   -2.550038
      4         27           0       -0.131145   -0.006355   -0.000138
      5          7           0       -1.530505   -1.268099   -0.061154
      6          6           0       -1.370684   -2.656134   -0.080238
      7          6           0       -2.698035   -3.357891    0.137730
      8          6           0       -3.722822   -2.242772   -0.132054
      9          6           0       -2.873570   -0.989513   -0.040892
     10          6           0       -0.176203   -3.317790   -0.244526
     11          6           0        1.056063   -2.639405   -0.367555
     12          7           0        1.119630   -1.313431   -0.274825
     13          6           0        2.534707   -0.862943   -0.447525
     14          6           0        3.369417   -2.120874   -0.150306
     15          6           0        2.421237   -3.262314   -0.591021
     16          6           0        2.641601    0.346947    0.471245
     17          7           0        1.333736    1.047956    0.283044
     18          6           0        1.516654    2.364990    0.356262
     19          6           0        2.970651    2.727763    0.597090
     20          6           0        3.694891    1.428014    0.171942
     21          6           0       -3.401688    0.295586   -0.005409
     22          6           0       -2.649863    1.462585    0.024520
     23          7           0       -1.277308    1.490721    0.048617
     24          6           0       -0.865625    2.824170    0.039262
     25          6           0       -2.041635    3.754403   -0.195986
     26          6           0       -3.253311    2.852220    0.096538
     27          6           0        0.432331    3.257779    0.199799
     28          1           0        2.657183   -0.529130   -1.490487
     29          1           0        2.689064    0.003173    1.517045
     30          1           0       -4.486315    0.394468   -0.007678
     31          1           0        0.624851    4.329113    0.198826
     32          1           0       -0.183531   -4.405800   -0.256356
     33          1           0        3.897158    1.453816   -0.908306
     34          1           0        4.640291    1.263569    0.702368
     35          1           0       -4.559825   -2.233623    0.577738
     36          1           0        3.286741    3.611510    0.027002
     37          1           0       -2.046151    4.086201   -1.246366
     38          1           0        3.140694    2.950292    1.663875
     39          1           0       -4.081421    2.986125   -0.610893
     40          1           0        3.559976   -2.192879    0.929746
     41          1           0        4.331056   -2.128699   -0.677080
     42          1           0        2.560305   -3.509532   -1.656668
     43          1           0        2.558691   -4.189217   -0.019227
     44          1           0       -1.994376    4.652923    0.431301
     45          1           0       -2.815970   -4.235594   -0.509197
     46          1           0       -3.653351    3.037808    1.106493
     47          1           0       -2.761667   -3.705812    1.180725
     48          1           0       -4.152590   -2.331465   -1.142771
     49          8           0        0.739164   -1.112965    2.897159
     50          1           0        0.328503   -0.314553    3.283282
     51          1           0        0.490681   -1.028573    1.943024
 ---------------------------------------------------------------------
 Rotational constants (GHZ):      0.2440352      0.2346645      0.1417104
 Standard basis: 6-31G(d) (6D, 7F)
 There are   464 symmetry adapted cartesian basis functions of A   symmetry.
 There are   461 symmetry adapted basis functions of A   symmetry.
   461 basis functions,   904 primitive gaussians,   464 cartesian basis functions
   105 alpha electrons      105 beta electrons
       nuclear repulsion energy      3159.7551061710 Hartrees.
 NAtoms=   51 NActive=   51 NUniq=   51 SFac= 1.00D+00 NAtFMM=   60 NAOKFM=F Big=F
 Integral buffers will be    131072 words long.
 Raffenetti 2 integral format.
 Two-electron integral symmetry is turned on.
 One-electron integrals computed using PRISM.
 NBasis=   461 RedAO= T EigKep=  7.37D-04  NBF=   461
 NBsUse=   461 1.00D-06 EigRej= -1.00D+00 NBFU=   461
 ExpMin= 4.30D-02 ExpMax= 6.61D+04 ExpMxC= 9.93D+03 IAcc=3 IRadAn=         5 AccDes= 0.00D+00
 Harris functional with IExCor= 1009 and IRadAn=       5 diagonalized for initial guess.
 HarFok:  IExCor= 1009 AccDes= 0.00D+00 IRadAn=         5 IDoV= 1 UseB2=F ITyADJ=14
 ICtDFT=  3500011 ScaDFX=  1.000000  1.000000  1.000000  1.000000
 FoFCou: FMM=F IPFlag=           0 FMFlag=      100000 FMFlg1=           0
         NFxFlg=           0 DoJE=T BraDBF=F KetDBF=T FulRan=T
         wScrn=  0.000000 ICntrl=     500 IOpCl=  0 I1Cent=   200000004 NGrid=           0
         NMat0=    1 NMatS0=      1 NMatT0=    0 NMatD0=    1 NMtDS0=    0 NMtDT0=    0
 Petite list used in FoFCou.
 Requested convergence on RMS density matrix=1.00D-08 within 128 cycles.
 Requested convergence on MAX density matrix=1.00D-06.
 Requested convergence on             energy=1.00D-06.
 No special actions if energy rises.
 EnCoef did    15 forward-backward iterations
 EnCoef did     1 forward-backward iterations
 EnCoef did     2 forward-backward iterations
 EnCoef did     1 forward-backward iterations
 EnCoef did     9 forward-backward iterations
 SCF Done:  E(RTPSS-TPSS) =  -2491.51216773     A.U. after   19 cycles
            NFock= 19  Conv=0.79D-08     -V/T= 2.0047
 Range of M.O.s used for correlation:     1   461
 NBasis=   461 NAE=   105 NBE=   105 NFC=     0 NFV=     0
 NROrb=    461 NOA=   105 NOB=   105 NVA=   356 NVB=   356

 **** Warning!!: The largest alpha MO coefficient is  0.20154394D+02


 **** Warning!!: The smallest alpha delta epsilon is  0.56047426D-01

 Symmetrizing basis deriv contribution to polar:
 IMax=3 JMax=2 DiffMx= 0.00D+00
 G2DrvN: will do    52 centers at a time, making    1 passes.
 Calling FoFCou, ICntrl=  3507 FMM=F I1Cent=   0 AccDes= 0.00D+00.
 End of G2Drv F.D. properties file   721 does not exist.
 End of G2Drv F.D. properties file   722 does not exist.
 End of G2Drv F.D. properties file   788 does not exist.
          IDoAtm=11111111111111111111111111111111111111111111111111
          IDoAtm=1
          Differentiating once with respect to electric field.
                with respect to dipole field.
          Differentiating once with respect to nuclear coordinates.
          There are   156 degrees of freedom in the 1st order CPHF.  IDoFFX=6 NUNeed=     3.
    153 vectors produced by pass  0 Test12= 3.74D-14 1.00D-09 XBig12= 1.50D+03 2.29D+01.
 AX will form   153 AO Fock derivatives at one time.
    153 vectors produced by pass  1 Test12= 3.74D-14 1.00D-09 XBig12= 1.53D+03 7.19D+00.
    153 vectors produced by pass  2 Test12= 3.74D-14 1.00D-09 XBig12= 3.89D+00 2.42D-01.
    153 vectors produced by pass  3 Test12= 3.74D-14 1.00D-09 XBig12= 1.69D-02 1.36D-02.
    151 vectors produced by pass  4 Test12= 3.74D-14 1.00D-09 XBig12= 7.79D-06 2.21D-04.
     52 vectors produced by pass  5 Test12= 3.74D-14 1.00D-09 XBig12= 2.53D-09 5.08D-06.
      3 vectors produced by pass  6 Test12= 3.74D-14 1.00D-09 XBig12= 6.35D-13 5.95D-08.
      1 vectors produced by pass  7 Test12= 3.74D-14 1.00D-09 XBig12= 1.84D-16 1.27D-09.
 InvSVY:  IOpt=1 It=  1 EMax= 2.84D-14
 Solved reduced A of dimension   819 with   156 vectors.
 Isotropic polarizability for W=    0.000000      298.82 Bohr**3.
 End of Minotr F.D. properties file   721 does not exist.
 End of Minotr F.D. properties file   722 does not exist.
 End of Minotr F.D. properties file   788 does not exist.

 **********************************************************************

            Population analysis using the SCF density.

 **********************************************************************

 Orbital symmetries:
       Occupied  (A) (A) (A) (A) (A) (A) (A) (A) (A) (A) (A) (A)
                 (A) (A) (A) (A) (A) (A) (A) (A) (A) (A) (A) (A)
                 (A) (A) (A) (A) (A) (A) (A) (A) (A) (A) (A) (A)
                 (A) (A) (A) (A) (A) (A) (A) (A) (A) (A) (A) (A)
                 (A) (A) (A) (A) (A) (A) (A) (A) (A) (A) (A) (A)
                 (A) (A) (A) (A) (A) (A) (A) (A) (A) (A) (A) (A)
                 (A) (A) (A) (A) (A) (A) (A) (A) (A) (A) (A) (A)
                 (A) (A) (A) (A) (A) (A) (A) (A) (A) (A) (A) (A)
                 (A) (A) (A) (A) (A) (A) (A) (A) (A)
       Virtual   (A) (A) (A) (A) (A) (A) (A) (A) (A) (A) (A) (A)
                 (A) (A) (A) (A) (A) (A) (A) (A) (A) (A) (A) (A)
                 (A) (A) (A) (A) (A) (A) (A) (A) (A) (A) (A) (A)
                 (A) (A) (A) (A) (A) (A) (A) (A) (A) (A) (A) (A)
                 (A) (A) (A) (A) (A) (A) (A) (A) (A) (A) (A) (A)
                 (A) (A) (A) (A) (A) (A) (A) (A) (A) (A) (A) (A)
                 (A) (A) (A) (A) (A) (A) (A) (A) (A) (A) (A) (A)
                 (A) (A) (A) (A) (A) (A) (A) (A) (A) (A) (A) (A)
                 (A) (A) (A) (A) (A) (A) (A) (A) (A) (A) (A) (A)
                 (A) (A) (A) (A) (A) (A) (A) (A) (A) (A) (A) (A)
                 (A) (A) (A) (A) (A) (A) (A) (A) (A) (A) (A) (A)
                 (A) (A) (A) (A) (A) (A) (A) (A) (A) (A) (A) (A)
                 (A) (A) (A) (A) (A) (A) (A) (A) (A) (A) (A) (A)
                 (A) (A) (A) (A) (A) (A) (A) (A) (A) (A) (A) (A)
                 (A) (A) (A) (A) (A) (A) (A) (A) (A) (A) (A) (A)
                 (A) (A) (A) (A) (A) (A) (A) (A) (A) (A) (A) (A)
                 (A) (A) (A) (A) (A) (A) (A) (A) (A) (A) (A) (A)
                 (A) (A) (A) (A) (A) (A) (A) (A) (A) (A) (A) (A)
                 (A) (A) (A) (A) (A) (A) (A) (A) (A) (A) (A) (A)
                 (A) (A) (A) (A) (A) (A) (A) (A) (A) (A) (A) (A)
                 (A) (A) (A) (A) (A) (A) (A) (A) (A) (A) (A) (A)
                 (A) (A) (A) (A) (A) (A) (A) (A) (A) (A) (A) (A)
                 (A) (A) (A) (A) (A) (A) (A) (A) (A) (A) (A) (A)
                 (A) (A) (A) (A) (A) (A) (A) (A) (A) (A) (A) (A)
                 (A) (A) (A) (A) (A) (A) (A) (A) (A) (A) (A) (A)
                 (A) (A) (A) (A) (A) (A) (A) (A) (A) (A) (A) (A)
                 (A) (A) (A) (A) (A) (A) (A) (A) (A) (A) (A) (A)
                 (A) (A) (A) (A) (A) (A) (A) (A) (A) (A) (A) (A)
                 (A) (A) (A) (A) (A) (A) (A) (A) (A) (A) (A) (A)
                 (A) (A) (A) (A) (A) (A) (A) (A)
 The electronic state is 1-A.
 Alpha  occ. eigenvalues -- -276.63472 -32.44804 -28.11616 -28.11445 -28.09680
 Alpha  occ. eigenvalues --  -18.87124 -18.86813 -14.13586 -14.13471 -14.12745
 Alpha  occ. eigenvalues --  -14.12639 -10.03191 -10.02899 -10.02843 -10.02631
 Alpha  occ. eigenvalues --  -10.02537 -10.02522 -10.02477 -10.02477 -10.01027
 Alpha  occ. eigenvalues --  -10.00917 -10.00792 -10.00646 -10.00601 -10.00591
 Alpha  occ. eigenvalues --  -10.00437 -10.00215  -9.99033  -9.98605  -9.98433
 Alpha  occ. eigenvalues --   -3.54721  -2.26110  -2.25881  -2.22473  -0.89922
 Alpha  occ. eigenvalues --   -0.89695  -0.88803  -0.87555  -0.87328  -0.85522
 Alpha  occ. eigenvalues --   -0.74430  -0.71610  -0.71395  -0.70973  -0.70863
 Alpha  occ. eigenvalues --   -0.70764  -0.69771  -0.65061  -0.64308  -0.59158
 Alpha  occ. eigenvalues --   -0.58252  -0.56160  -0.53418  -0.53329  -0.52504
 Alpha  occ. eigenvalues --   -0.50081  -0.49602  -0.48144  -0.45913  -0.45355
 Alpha  occ. eigenvalues --   -0.45100  -0.44101  -0.43527  -0.43404  -0.43005
 Alpha  occ. eigenvalues --   -0.42935  -0.42493  -0.41274  -0.40484  -0.38216
 Alpha  occ. eigenvalues --   -0.37164  -0.36409  -0.35579  -0.35170  -0.34806
 Alpha  occ. eigenvalues --   -0.34269  -0.34202  -0.34047  -0.33866  -0.33353
 Alpha  occ. eigenvalues --   -0.33205  -0.32839  -0.32563  -0.32446  -0.31261
 Alpha  occ. eigenvalues --   -0.30895  -0.30431  -0.30263  -0.30177  -0.29946
 Alpha  occ. eigenvalues --   -0.29006  -0.28699  -0.27343  -0.27138  -0.26692
 Alpha  occ. eigenvalues --   -0.25665  -0.22713  -0.21468  -0.21162  -0.19809
 Alpha  occ. eigenvalues --   -0.17672  -0.15964  -0.13525  -0.13165  -0.12791
 Alpha virt. eigenvalues --   -0.07186  -0.04173  -0.02323  -0.01645   0.01662
 Alpha virt. eigenvalues --    0.04131   0.05190   0.05634   0.05941   0.06525
 Alpha virt. eigenvalues --    0.06986   0.08426   0.09174   0.09797   0.10181
 Alpha virt. eigenvalues --    0.11180   0.11461   0.12013   0.12301   0.12817
 Alpha virt. eigenvalues --    0.13265   0.13365   0.14077   0.14421   0.14915
 Alpha virt. eigenvalues --    0.15187   0.15532   0.16094   0.16453   0.16827
 Alpha virt. eigenvalues --    0.17019   0.17218   0.17486   0.18036   0.18498
 Alpha virt. eigenvalues --    0.19345   0.19598   0.20203   0.20405   0.20577
 Alpha virt. eigenvalues --    0.20835   0.20914   0.21519   0.22647   0.23718
 Alpha virt. eigenvalues --    0.23996   0.24797   0.25758   0.27281   0.27837
 Alpha virt. eigenvalues --    0.29654   0.29737   0.30587   0.31954   0.32930
 Alpha virt. eigenvalues --    0.34786   0.35356   0.36603   0.38823   0.39912
 Alpha virt. eigenvalues --    0.40906   0.42163   0.42493   0.44814   0.44916
 Alpha virt. eigenvalues --    0.49461   0.50262   0.50310   0.51574   0.51600
 Alpha virt. eigenvalues --    0.52144   0.52434   0.53177   0.53634   0.53890
 Alpha virt. eigenvalues --    0.53968   0.54769   0.55556   0.55868   0.56213
 Alpha virt. eigenvalues --    0.56430   0.57646   0.58291   0.59120   0.59490
 Alpha virt. eigenvalues --    0.59957   0.60506   0.61349   0.61704   0.62096
 Alpha virt. eigenvalues --    0.62496   0.63763   0.64517   0.65656   0.66587
 Alpha virt. eigenvalues --    0.67338   0.68233   0.69348   0.70295   0.71564
 Alpha virt. eigenvalues --    0.71674   0.72219   0.72916   0.72975   0.74445
 Alpha virt. eigenvalues --    0.74839   0.75590   0.77294   0.78089   0.78338
 Alpha virt. eigenvalues --    0.79044   0.79996   0.81107   0.81672   0.81876
 Alpha virt. eigenvalues --    0.82261   0.82504   0.82710   0.82758   0.83389
 Alpha virt. eigenvalues --    0.83510   0.83881   0.84072   0.84480   0.84777
 Alpha virt. eigenvalues --    0.84916   0.85689   0.87335   0.87783   0.88432
 Alpha virt. eigenvalues --    0.88783   0.89270   0.89657   0.90071   0.90827
 Alpha virt. eigenvalues --    0.91879   0.92482   0.92660   0.92997   0.93191
 Alpha virt. eigenvalues --    0.94135   0.94721   0.95311   0.96406   0.97143
 Alpha virt. eigenvalues --    0.97327   0.98151   0.99841   1.01393   1.02952
 Alpha virt. eigenvalues --    1.03202   1.04863   1.05471   1.06341   1.07053
 Alpha virt. eigenvalues --    1.07442   1.08831   1.09410   1.11405   1.12046
 Alpha virt. eigenvalues --    1.13729   1.14798   1.15765   1.17001   1.18558
 Alpha virt. eigenvalues --    1.18934   1.19269   1.20626   1.22322   1.23944
 Alpha virt. eigenvalues --    1.25068   1.26009   1.27238   1.29806   1.30645
 Alpha virt. eigenvalues --    1.31393   1.34787   1.35762   1.37149   1.37447
 Alpha virt. eigenvalues --    1.37908   1.39751   1.40480   1.41383   1.43146
 Alpha virt. eigenvalues --    1.44272   1.45884   1.47458   1.49002   1.49697
 Alpha virt. eigenvalues --    1.50988   1.54073   1.55796   1.56198   1.58022
 Alpha virt. eigenvalues --    1.59385   1.62020   1.62255   1.64316   1.66319
 Alpha virt. eigenvalues --    1.66946   1.69544   1.70190   1.71770   1.71868
 Alpha virt. eigenvalues --    1.72872   1.73227   1.73732   1.74375   1.75245
 Alpha virt. eigenvalues --    1.75526   1.75761   1.76478   1.76995   1.77301
 Alpha virt. eigenvalues --    1.77942   1.78114   1.78524   1.78589   1.79402
 Alpha virt. eigenvalues --    1.80418   1.80568   1.81008   1.82075   1.82465
 Alpha virt. eigenvalues --    1.83598   1.84278   1.84472   1.88032   1.88637
 Alpha virt. eigenvalues --    1.89468   1.90743   1.90956   1.92234   1.92578
 Alpha virt. eigenvalues --    1.94349   1.94882   1.96144   1.96211   1.96607
 Alpha virt. eigenvalues --    1.97391   1.98965   1.99483   2.00455   2.01014
 Alpha virt. eigenvalues --    2.03691   2.05380   2.06354   2.07169   2.07212
 Alpha virt. eigenvalues --    2.07510   2.08931   2.09328   2.12272   2.12672
 Alpha virt. eigenvalues --    2.13272   2.15448   2.17264   2.17426   2.18988
 Alpha virt. eigenvalues --    2.20027   2.20514   2.21780   2.22756   2.23075
 Alpha virt. eigenvalues --    2.23530   2.24236   2.25175   2.26109   2.27291
 Alpha virt. eigenvalues --    2.28518   2.29080   2.29594   2.30546   2.31218
 Alpha virt. eigenvalues --    2.32860   2.33970   2.34387   2.35422   2.37891
 Alpha virt. eigenvalues --    2.40672   2.41472   2.41927   2.43934   2.46037
 Alpha virt. eigenvalues --    2.46323   2.47043   2.48017   2.48767   2.49569
 Alpha virt. eigenvalues --    2.50314   2.50791   2.51299   2.51788   2.54885
 Alpha virt. eigenvalues --    2.55833   2.58214   2.58354   2.59279   2.60138
 Alpha virt. eigenvalues --    2.61696   2.63343   2.63617   2.64921   2.66334
 Alpha virt. eigenvalues --    2.67182   2.71169   2.72013   2.73270   2.74454
 Alpha virt. eigenvalues --    2.75794   2.76820   2.79312   2.80986   2.81575
 Alpha virt. eigenvalues --    2.82503   2.84201   2.85032   2.86504   2.88579
 Alpha virt. eigenvalues --    2.95698   2.95996   3.05771   3.08044   3.11104
 Alpha virt. eigenvalues --    3.19177   3.22817   3.34385   3.37741   3.41977
 Alpha virt. eigenvalues --    3.77055   3.79858   4.09771   4.11515   4.13348
 Alpha virt. eigenvalues --    4.15088   4.16001   4.17334   4.17707   4.17904
 Alpha virt. eigenvalues --    4.23426   4.24773   4.26649   4.29430   4.32789
 Alpha virt. eigenvalues --    4.32828   4.34536   4.45993   4.53487   4.54777
 Alpha virt. eigenvalues --    4.59830   4.63324   4.64442   4.67463   4.73246
 Alpha virt. eigenvalues --   26.16164
          Condensed to atoms (all electrons):
 Mulliken charges:
               1
     1  O   -0.803081
     2  H    0.409002
     3  H    0.383978
     4  Co   0.540028
     5  N   -0.645941
     6  C    0.358531
     7  C   -0.373046
     8  C   -0.370629
     9  C    0.358647
    10  C   -0.295024
    11  C    0.366520
    12  N   -0.577630
    13  C    0.005673
    14  C   -0.327275
    15  C   -0.371080
    16  C    0.006210
    17  N   -0.562851
    18  C    0.339868
    19  C   -0.369326
    20  C   -0.326677
    21  C   -0.305702
    22  C    0.357927
    23  N   -0.642663
    24  C    0.351606
    25  C   -0.371422
    26  C   -0.369763
    27  C   -0.317822
    28  H    0.197226
    29  H    0.194195
    30  H    0.136182
    31  H    0.139293
    32  H    0.140721
    33  H    0.170465
    34  H    0.157613
    35  H    0.167942
    36  H    0.165191
    37  H    0.181512
    38  H    0.172554
    39  H    0.169395
    40  H    0.174491
    41  H    0.156773
    42  H    0.174682
    43  H    0.170416
    44  H    0.168257
    45  H    0.169333
    46  H    0.175620
    47  H    0.185056
    48  H    0.178090
    49  O   -0.798964
    50  H    0.391494
    51  H    0.414406
 Sum of Mulliken charges =   0.00000
 Mulliken charges with hydrogens summed into heavy atoms:
               1
     1  O   -0.010101
     4  Co   0.540028
     5  N   -0.645941
     6  C    0.358531
     7  C   -0.018657
     8  C   -0.024597
     9  C    0.358647
    10  C   -0.154303
    11  C    0.366520
    12  N   -0.577630
    13  C    0.202899
    14  C    0.003989
    15  C   -0.025983
    16  C    0.200406
    17  N   -0.562851
    18  C    0.339868
    19  C   -0.031582
    20  C    0.001401
    21  C   -0.169520
    22  C    0.357927
    23  N   -0.642663
    24  C    0.351606
    25  C   -0.021653
    26  C   -0.024748
    27  C   -0.178530
    49  O    0.006936
 APT charges:
               1
     1  O   -0.524626
     2  H    0.274897
     3  H    0.205502
     4  Co  -0.394673
     5  N   -0.233385
     6  C    0.352072
     7  C    0.081006
     8  C    0.103782
     9  C    0.222832
    10  C   -0.215047
    11  C    0.055778
    12  N   -0.041501
    13  C    0.231054
    14  C    0.089089
    15  C    0.124728
    16  C    0.225846
    17  N   -0.022518
    18  C    0.017153
    19  C    0.134152
    20  C    0.086934
    21  C   -0.230865
    22  C    0.220880
    23  N   -0.230258
    24  C    0.340043
    25  C    0.085752
    26  C    0.106493
    27  C   -0.222218
    28  H   -0.047241
    29  H   -0.043385
    30  H    0.006465
    31  H    0.009184
    32  H    0.009854
    33  H   -0.020976
    34  H   -0.039664
    35  H   -0.043086
    36  H   -0.043366
    37  H   -0.052193
    38  H   -0.069005
    39  H   -0.042140
    40  H   -0.022601
    41  H   -0.040548
    42  H   -0.065119
    43  H   -0.039328
    44  H   -0.038395
    45  H   -0.036814
    46  H   -0.065466
    47  H   -0.049480
    48  H   -0.063246
    49  O   -0.532814
    50  H    0.215975
    51  H    0.270487
 Sum of APT charges =   0.00000
 APT charges with hydrogens summed into heavy atoms:
               1
     1  O   -0.044227
     4  Co  -0.394673
     5  N   -0.233385
     6  C    0.352072
     7  C   -0.005288
     8  C   -0.002550
     9  C    0.222832
    10  C   -0.205193
    11  C    0.055778
    12  N   -0.041501
    13  C    0.183812
    14  C    0.025940
    15  C    0.020281
    16  C    0.182461
    17  N   -0.022518
    18  C    0.017153
    19  C    0.021781
    20  C    0.026294
    21  C   -0.224400
    22  C    0.220880
    23  N   -0.230258
    24  C    0.340043
    25  C   -0.004836
    26  C   -0.001113
    27  C   -0.213033
    49  O   -0.046353
 Electronic spatial extent (au):  <R**2>=           8148.7335
 Charge=              0.0000 electrons
 Dipole moment (field-independent basis, Debye):
    X=             -0.6919    Y=              1.4165    Z=              0.8626  Tot=              1.7970
 Quadrupole moment (field-independent basis, Debye-Ang):
   XX=           -138.8299   YY=           -138.2514   ZZ=           -176.3162
   XY=              1.4224   XZ=             -0.3713   YZ=              6.9358
 Traceless Quadrupole moment (field-independent basis, Debye-Ang):
   XX=             12.3026   YY=             12.8811   ZZ=            -25.1837
   XY=              1.4224   XZ=             -0.3713   YZ=              6.9358
 Octapole moment (field-independent basis, Debye-Ang**2):
  XXX=             -5.2018  YYY=              9.4651  ZZZ=             28.6288  XYY=             -7.6868
  XXY=             -2.0753  XXZ=              0.5641  XZZ=            -14.3498  YZZ=             15.9974
  YYZ=            -18.4580  XYZ=             10.2148
 Hexadecapole moment (field-independent basis, Debye-Ang**3):
 XXXX=          -4844.1406 YYYY=          -4521.0825 ZZZZ=          -1083.6810 XXXY=             13.0554
 XXXZ=              3.8973 YYYX=              6.4021 YYYZ=            -29.7375 ZZZX=              1.3352
 ZZZY=             59.9827 XXYY=          -1524.0397 XXZZ=          -1025.0338 YYZZ=           -986.3126
 XXYZ=              7.6705 YYXZ=            -18.5667 ZZXY=             13.2094
 N-N= 3.159755106171D+03 E-N=-1.219476124148D+04  KE= 2.479782388336D+03
  Exact polarizability: 358.640   1.672 370.496   0.615   8.977 167.310
 Approx polarizability: 799.009   5.306 852.051   1.851  28.915 314.355
 Calling FoFJK, ICntrl=    100527 FMM=F ISym2X=0 I1Cent= 0 IOpClX= 0 NMat=1 NMatS=1 NMatT=0.
 Full mass-weighted force constant matrix:
 Low frequencies ---   -3.6280   -2.3506   -1.1816   -0.0055   -0.0043   -0.0042
 Low frequencies ---   36.8292   43.0437   45.7973
 Diagonal vibrational polarizability:
       83.4400390      77.6924064     130.6137572
 Harmonic frequencies (cm**-1), IR intensities (KM/Mole), Raman scattering
 activities (A**4/AMU), depolarization ratios for plane and unpolarized
 incident light, reduced masses (AMU), force constants (mDyne/A),
 and normal coordinates:
                      1                      2                      3
                      A                      A                      A
 Frequencies --     36.8273                43.0436                45.7968
 Red. masses --      5.8699                 4.8930                 5.9608
 Frc consts  --      0.0047                 0.0053                 0.0074
 IR Inten    --      1.6242                 0.8103                 2.6702
  Atom  AN      X      Y      Z        X      Y      Z        X      Y      Z
     1   8    -0.23   0.40   0.09     0.08  -0.04   0.00     0.01  -0.07  -0.01
     2   1    -0.15   0.25   0.06     0.05  -0.04  -0.01     0.01  -0.04   0.01
     3   1    -0.27   0.36   0.23     0.13  -0.05   0.03    -0.01  -0.06  -0.06
     4  27     0.00  -0.02   0.02     0.00   0.02  -0.01    -0.02   0.02   0.02
     5   7     0.00  -0.01   0.02     0.01   0.01   0.04    -0.02   0.02  -0.01
     6   6     0.00  -0.01   0.06     0.02   0.02   0.04    -0.03   0.02  -0.01
     7   6    -0.01   0.00   0.09     0.04   0.01   0.13    -0.04   0.02  -0.06
     8   6     0.00  -0.01   0.03     0.00   0.00   0.22    -0.02   0.03  -0.10
     9   6     0.00  -0.01  -0.01     0.01   0.01   0.11    -0.02   0.02  -0.05
    10   6    -0.01  -0.02   0.05     0.01   0.03  -0.03    -0.02   0.01   0.03
    11   6    -0.01  -0.02   0.02     0.01   0.03  -0.07    -0.02   0.01   0.06
    12   7    -0.01  -0.02   0.01     0.00   0.03  -0.05    -0.02   0.01   0.04
    13   6    -0.01  -0.02  -0.01     0.00   0.04  -0.01    -0.01   0.00   0.06
    14   6     0.00  -0.02  -0.06     0.00   0.03  -0.05    -0.03   0.00   0.13
    15   6    -0.02  -0.02  -0.02     0.01   0.04  -0.09    -0.01   0.00   0.12
    16   6     0.01  -0.04   0.02    -0.02   0.01   0.04    -0.01   0.03   0.01
    17   7     0.01  -0.03   0.04    -0.01   0.02   0.01    -0.02   0.02   0.00
    18   6     0.01  -0.03   0.04    -0.01   0.02   0.02    -0.02   0.02  -0.02
    19   6     0.01  -0.04   0.05    -0.02   0.01   0.09    -0.02   0.03  -0.05
    20   6     0.01  -0.04   0.03     0.00   0.01   0.11    -0.02   0.03  -0.03
    21   6     0.01   0.00  -0.08     0.00   0.01   0.06    -0.02   0.02  -0.04
    22   6     0.01  -0.01  -0.10     0.00   0.01  -0.02    -0.02   0.02  -0.01
    23   7     0.01  -0.01  -0.04     0.00   0.01  -0.03    -0.02   0.02   0.00
    24   6     0.02  -0.02  -0.05     0.00   0.01  -0.07    -0.02   0.02   0.00
    25   6     0.04  -0.01  -0.12     0.01   0.00  -0.14    -0.02   0.02   0.00
    26   6     0.02   0.00  -0.19     0.00   0.02  -0.11    -0.02   0.02   0.00
    27   6     0.02  -0.03   0.00     0.00   0.01  -0.04    -0.02   0.02  -0.02
    28   1    -0.04   0.01  -0.01     0.02   0.09   0.00     0.02  -0.05   0.05
    29   1     0.01  -0.07   0.01    -0.05  -0.04   0.03    -0.01   0.07   0.02
    30   1     0.01   0.00  -0.11     0.00   0.00   0.09    -0.02   0.02  -0.06
    31   1     0.03  -0.03   0.00     0.00   0.01  -0.06    -0.02   0.02  -0.03
    32   1    -0.01  -0.02   0.07     0.02   0.03  -0.04    -0.03   0.01   0.04
    33   1     0.00  -0.02   0.03     0.07   0.02   0.13    -0.04   0.00  -0.04
    34   1     0.01  -0.05   0.03    -0.03   0.00   0.17    -0.01   0.04  -0.04
    35   1    -0.01   0.02   0.03     0.08   0.01   0.31    -0.06   0.02  -0.14
    36   1     0.02  -0.03   0.07     0.01   0.01   0.10    -0.03   0.02  -0.07
    37   1     0.11  -0.02  -0.13     0.02  -0.06  -0.16    -0.03   0.02   0.00
    38   1     0.01  -0.06   0.06    -0.07   0.01   0.09     0.00   0.06  -0.06
    39   1     0.07  -0.02  -0.25     0.01  -0.02  -0.13    -0.03   0.02   0.01
    40   1     0.05  -0.03  -0.07     0.00  -0.01  -0.05    -0.08   0.04   0.14
    41   1    -0.02  -0.02  -0.10     0.01   0.05  -0.05     0.00  -0.02   0.18
    42   1    -0.05  -0.03  -0.03     0.01   0.09  -0.10     0.03  -0.03   0.13
    43   1     0.00  -0.02  -0.02     0.01   0.02  -0.13    -0.04   0.01   0.15
    44   1     0.01  -0.01  -0.13     0.00   0.04  -0.19    -0.02   0.02   0.00
    45   1    -0.01  -0.03   0.13    -0.01   0.01   0.12    -0.01   0.02  -0.07
    46   1    -0.06   0.03  -0.22    -0.01   0.08  -0.13    -0.01   0.01   0.01
    47   1    -0.01   0.05   0.10     0.12  -0.01   0.13    -0.08   0.02  -0.06
    48   1     0.00  -0.05   0.04    -0.11  -0.02   0.27     0.03   0.04  -0.12
    49   8     0.14   0.00   0.01    -0.12  -0.31  -0.10     0.41  -0.29  -0.11
    50   1     0.13  -0.03   0.06    -0.11  -0.36   0.01     0.44  -0.41   0.17
    51   1     0.11   0.04   0.02    -0.10  -0.18  -0.09     0.20  -0.09  -0.04
                      4                      5                      6
                      A                      A                      A
 Frequencies --     53.6312                59.5167                62.1120
 Red. masses --      6.5402                 4.3857                 3.4949
 Frc consts  --      0.0111                 0.0092                 0.0079
 IR Inten    --      2.2403                 0.8937                 0.7770
  Atom  AN      X      Y      Z        X      Y      Z        X      Y      Z
     1   8     0.49   0.21   0.12    -0.03   0.21   0.03    -0.09  -0.03  -0.03
     2   1     0.28   0.15  -0.02     0.02   0.10  -0.01    -0.04  -0.01   0.00
     3   1     0.36   0.20   0.19    -0.17   0.20   0.10    -0.06  -0.03  -0.05
     4  27    -0.02  -0.01  -0.02     0.01   0.00  -0.01     0.01   0.01   0.00
     5   7    -0.02  -0.01   0.00     0.01   0.00  -0.01     0.02   0.01   0.00
     6   6    -0.02  -0.01   0.06     0.00   0.00  -0.04     0.02   0.01   0.09
     7   6    -0.02   0.00   0.11     0.00  -0.01  -0.09     0.01   0.03   0.13
     8   6    -0.02  -0.02   0.04     0.00   0.01  -0.02     0.03  -0.01  -0.11
     9   6    -0.02  -0.02   0.00     0.01   0.00   0.02     0.01   0.01  -0.08
    10   6    -0.02  -0.02   0.06     0.01  -0.01   0.00     0.02   0.00   0.13
    11   6    -0.03  -0.02   0.02     0.01  -0.01   0.05     0.01   0.00   0.07
    12   7    -0.03  -0.01  -0.02     0.02  -0.01   0.03     0.01   0.00   0.00
    13   6    -0.03  -0.02  -0.05     0.02  -0.02   0.05     0.00   0.01  -0.05
    14   6    -0.02  -0.01  -0.03     0.01  -0.01   0.14     0.02   0.02  -0.05
    15   6    -0.03  -0.02   0.02     0.02  -0.03   0.14     0.01  -0.01   0.05
    16   6     0.00   0.00  -0.08     0.01   0.02  -0.01     0.02   0.01  -0.06
    17   7    -0.02  -0.01  -0.02     0.01   0.01  -0.04     0.01   0.01  -0.02
    18   6    -0.03  -0.01   0.00     0.02   0.01  -0.11     0.01   0.01   0.02
    19   6    -0.02  -0.01  -0.05     0.02   0.03  -0.15     0.02   0.01  -0.03
    20   6    -0.04   0.01  -0.16     0.01   0.00  -0.07     0.00   0.02  -0.09
    21   6    -0.03  -0.02  -0.03     0.01   0.00   0.09     0.01   0.00  -0.13
    22   6    -0.03  -0.02  -0.02     0.01   0.00   0.09     0.01   0.01  -0.06
    23   7    -0.03  -0.01  -0.01     0.01   0.00   0.00     0.01   0.01   0.01
    24   6    -0.03  -0.01   0.03     0.01   0.00  -0.05     0.00   0.01   0.08
    25   6    -0.03   0.00   0.06    -0.01  -0.02  -0.02     0.01   0.03   0.14
    26   6    -0.04  -0.02  -0.02     0.02   0.00   0.16    -0.01   0.00  -0.04
    27   6    -0.03  -0.01   0.04     0.01   0.01  -0.12     0.00   0.01   0.09
    28   1    -0.03  -0.04  -0.06     0.06  -0.08   0.04    -0.03   0.00  -0.06
    29   1     0.06   0.02  -0.07     0.01   0.07   0.01     0.06   0.02  -0.06
    30   1    -0.03  -0.02  -0.03     0.01   0.00   0.14     0.01   0.00  -0.19
    31   1    -0.04  -0.01   0.07     0.01   0.01  -0.17     0.00   0.01   0.14
    32   1    -0.02  -0.02   0.10     0.00  -0.01   0.00     0.02   0.00   0.20
    33   1    -0.17   0.04  -0.18     0.01  -0.06  -0.07    -0.05   0.04  -0.10
    34   1     0.02   0.01  -0.26     0.01   0.03  -0.06     0.03   0.01  -0.14
    35   1    -0.03   0.01   0.02     0.02  -0.02  -0.01    -0.07   0.04  -0.24
    36   1    -0.06   0.02  -0.03     0.01  -0.01  -0.21     0.00   0.02  -0.02
    37   1    -0.01   0.06   0.08    -0.11  -0.11  -0.05     0.07   0.19   0.19
    38   1     0.04  -0.06  -0.05     0.03   0.10  -0.16     0.06  -0.02  -0.03
    39   1    -0.01  -0.01  -0.05    -0.08   0.00   0.28     0.07   0.03  -0.13
    40   1    -0.01   0.01  -0.03    -0.05   0.03   0.15     0.09   0.06  -0.06
    41   1    -0.03  -0.03  -0.04     0.03  -0.04   0.18    -0.01   0.01  -0.11
    42   1    -0.05  -0.05   0.02     0.07  -0.07   0.15    -0.04  -0.07   0.06
    43   1    -0.02  -0.01   0.04    -0.01  -0.01   0.18     0.03   0.03   0.10
    44   1    -0.05  -0.04   0.11     0.04   0.03  -0.09    -0.03  -0.05   0.27
    45   1    -0.02  -0.05   0.17     0.00   0.03  -0.16     0.05  -0.08   0.28
    46   1    -0.09  -0.05  -0.03     0.17   0.01   0.22    -0.13  -0.07  -0.08
    47   1    -0.01   0.07   0.14    -0.01  -0.09  -0.12    -0.05   0.22   0.19
    48   1     0.00  -0.07   0.04    -0.02   0.06  -0.02     0.20  -0.10  -0.17
    49   8     0.05   0.02  -0.02    -0.19  -0.15  -0.03    -0.15  -0.14  -0.03
    50   1     0.05   0.02  -0.01    -0.24  -0.18   0.00    -0.17  -0.17   0.00
    51   1     0.02   0.02  -0.01    -0.11  -0.07  -0.04    -0.09  -0.07  -0.04
                      7                      8                      9
                      A                      A                      A
 Frequencies --     84.3673                92.5851               115.5045
 Red. masses --      4.8174                 2.1040                 2.3535
 Frc consts  --      0.0202                 0.0106                 0.0185
 IR Inten    --      8.6882                 0.3501                 0.6933
  Atom  AN      X      Y      Z        X      Y      Z        X      Y      Z
     1   8     0.03  -0.07   0.16    -0.03  -0.01   0.01     0.01   0.02   0.02
     2   1     0.00  -0.03   0.16     0.00  -0.01   0.02     0.02  -0.02   0.00
     3   1     0.01  -0.05   0.10    -0.08   0.00  -0.02    -0.08   0.02   0.02
     4  27     0.00   0.00   0.13     0.00   0.00   0.00     0.00   0.00   0.01
     5   7     0.00   0.00   0.06     0.00  -0.01   0.00     0.00   0.00   0.00
     6   6     0.00   0.00  -0.02     0.00  -0.01  -0.05     0.01   0.00   0.00
     7   6    -0.02  -0.01  -0.11     0.00  -0.03  -0.11     0.02   0.02   0.11
     8   6     0.00   0.01  -0.11    -0.02   0.01   0.14     0.02  -0.02  -0.02
     9   6     0.00   0.00   0.00     0.00   0.00   0.04     0.00  -0.01  -0.01
    10   6     0.00   0.00  -0.04     0.00   0.00  -0.05    -0.01   0.00  -0.08
    11   6    -0.01   0.01  -0.01     0.00   0.00   0.00    -0.01   0.01  -0.08
    12   7    -0.01   0.01   0.08     0.01   0.00   0.00     0.00   0.00   0.00
    13   6    -0.03   0.02  -0.01     0.01  -0.01   0.02     0.01  -0.01   0.07
    14   6     0.00   0.02  -0.12     0.00  -0.01   0.07    -0.03  -0.03   0.09
    15   6    -0.01   0.04  -0.14     0.01  -0.01   0.05    -0.01   0.02  -0.11
    16   6     0.04   0.02  -0.01     0.02   0.01  -0.02    -0.01  -0.01   0.07
    17   7     0.01   0.01   0.08     0.01   0.00   0.00     0.00   0.00   0.00
    18   6     0.01   0.01  -0.02     0.00   0.00   0.01     0.01   0.00  -0.09
    19   6     0.02   0.04  -0.15     0.01   0.01  -0.04     0.01   0.02  -0.12
    20   6     0.00   0.02  -0.14     0.00   0.01  -0.08     0.03  -0.04   0.09
    21   6     0.00   0.00  -0.01     0.01   0.00   0.00     0.00  -0.01  -0.02
    22   6     0.00   0.00   0.00     0.00   0.00  -0.05    -0.01  -0.01  -0.01
    23   7     0.00   0.00   0.06     0.00   0.01   0.00    -0.01   0.00   0.00
    24   6     0.00  -0.01  -0.02     0.00   0.01   0.05    -0.01   0.00   0.00
    25   6     0.01  -0.02  -0.12     0.01   0.04   0.10    -0.02   0.02   0.12
    26   6     0.00   0.01  -0.10    -0.02   0.00  -0.14    -0.03  -0.01  -0.03
    27   6     0.00   0.00  -0.05     0.00   0.00   0.05     0.01   0.00  -0.09
    28   1    -0.11   0.04  -0.01     0.03  -0.05   0.01     0.07  -0.01   0.08
    29   1     0.14   0.04  -0.01     0.05   0.04  -0.01    -0.07   0.00   0.08
    30   1     0.00   0.00  -0.07     0.01   0.00   0.00     0.00  -0.01  -0.03
    31   1     0.01   0.00  -0.13     0.00   0.00   0.09     0.01   0.00  -0.11
    32   1    -0.01   0.01  -0.12     0.00   0.00  -0.08    -0.01   0.00  -0.11
    33   1    -0.09  -0.03  -0.16    -0.06   0.01  -0.09     0.16  -0.15   0.11
    34   1     0.05   0.06  -0.22     0.03   0.02  -0.13    -0.04   0.00   0.21
    35   1    -0.04  -0.03  -0.16     0.12  -0.01   0.32    -0.04   0.00  -0.10
    36   1    -0.03   0.01  -0.23    -0.01   0.01  -0.05     0.02  -0.07  -0.25
    37   1     0.05  -0.09  -0.14     0.10   0.23   0.16     0.00   0.20   0.18
    38   1     0.11   0.10  -0.18     0.05   0.00  -0.05    -0.01   0.19  -0.15
    39   1     0.02  -0.04  -0.14     0.12  -0.01  -0.32     0.05  -0.01  -0.11
    40   1     0.06  -0.04  -0.13    -0.05   0.01   0.08    -0.19  -0.11   0.12
    41   1    -0.03   0.06  -0.17     0.02  -0.02   0.11     0.04  -0.01   0.22
    42   1    -0.08   0.13  -0.17     0.05  -0.02   0.05     0.05   0.19  -0.14
    43   1     0.03   0.00  -0.22    -0.01  -0.01   0.06    -0.03  -0.06  -0.24
    44   1    -0.01   0.03  -0.18    -0.04  -0.07   0.26    -0.02  -0.08   0.27
    45   1     0.02   0.02  -0.16    -0.03   0.09  -0.27     0.01  -0.08   0.25
    46   1    -0.03   0.07  -0.13    -0.25  -0.03  -0.23    -0.14  -0.05  -0.07
    47   1    -0.07  -0.06  -0.13     0.06  -0.24  -0.18     0.04   0.18   0.17
    48   1     0.06   0.06  -0.14    -0.24   0.07   0.23     0.12  -0.07  -0.06
    49   8    -0.05  -0.07   0.15    -0.02   0.00  -0.01     0.01   0.01   0.02
    50   1    -0.08  -0.10   0.17    -0.03   0.00  -0.01     0.04   0.03   0.00
    51   1     0.00  -0.03   0.14     0.00   0.01  -0.01     0.00  -0.01   0.02
                     10                     11                     12
                      A                      A                      A
 Frequencies --    128.9944               138.2723               151.9766
 Red. masses --      2.8425                 3.9196                 5.1002
 Frc consts  --      0.0279                 0.0442                 0.0694
 IR Inten    --      0.1539                 0.3270                 2.3941
  Atom  AN      X      Y      Z        X      Y      Z        X      Y      Z
     1   8    -0.05  -0.06   0.15    -0.02  -0.07   0.27    -0.04  -0.08   0.25
     2   1     0.01  -0.06   0.19    -0.05  -0.09   0.24    -0.02  -0.08   0.26
     3   1    -0.23  -0.03   0.07    -0.04  -0.08   0.31    -0.22  -0.05   0.19
     4  27     0.01   0.00  -0.01    -0.01   0.00   0.00     0.00   0.00  -0.10
     5   7     0.00   0.01  -0.02     0.00   0.00   0.01     0.00   0.01  -0.10
     6   6     0.00   0.01  -0.02     0.00   0.00   0.02     0.00   0.01  -0.03
     7   6     0.02   0.02   0.09    -0.01  -0.01  -0.05     0.01   0.01   0.04
     8   6     0.02   0.00   0.00    -0.01   0.00   0.00    -0.01   0.01   0.11
     9   6     0.00   0.00  -0.01     0.00   0.00   0.00     0.00   0.01  -0.08
    10   6    -0.01   0.01  -0.08     0.01   0.00   0.08     0.01   0.01   0.00
    11   6     0.00   0.01  -0.07     0.01   0.00   0.06     0.01   0.00  -0.01
    12   7     0.01   0.00  -0.03     0.00   0.00  -0.01     0.01   0.01  -0.04
    13   6     0.03  -0.02   0.03    -0.01   0.02  -0.03     0.01   0.01  -0.03
    14   6    -0.03  -0.04   0.15     0.04   0.03  -0.11     0.01   0.01  -0.02
    15   6     0.00   0.00  -0.03     0.01  -0.01   0.05     0.01   0.00   0.02
    16   6     0.03   0.02  -0.03    -0.01  -0.02   0.03    -0.01   0.00  -0.02
    17   7     0.01   0.00   0.02     0.00   0.00   0.01    -0.01   0.00  -0.03
    18   6    -0.01   0.00   0.07     0.01   0.00  -0.06    -0.01   0.00  -0.02
    19   6     0.00   0.00   0.04     0.01   0.01  -0.06    -0.01   0.00   0.01
    20   6    -0.03   0.04  -0.14     0.03  -0.04   0.11    -0.01   0.01   0.00
    21   6     0.00   0.00   0.00     0.00   0.00   0.00     0.00   0.02  -0.11
    22   6     0.00   0.00   0.00     0.00   0.00   0.00     0.00   0.01  -0.08
    23   7     0.00  -0.01   0.01     0.00   0.00  -0.01     0.00   0.01  -0.11
    24   6     0.00   0.00   0.01     0.00   0.00  -0.02     0.00   0.01  -0.04
    25   6     0.01  -0.02  -0.08     0.00   0.02   0.06    -0.01   0.02   0.05
    26   6     0.02   0.00   0.01    -0.01   0.00   0.00     0.02   0.01   0.11
    27   6    -0.01   0.00   0.08     0.01   0.00  -0.08     0.00   0.01  -0.03
    28   1     0.10  -0.10   0.02    -0.05   0.09  -0.02     0.01   0.01  -0.03
    29   1     0.10   0.08  -0.01    -0.07  -0.07   0.01    -0.01   0.00  -0.02
    30   1     0.00   0.00   0.00     0.00   0.00   0.00     0.00   0.02  -0.06
    31   1    -0.01   0.00   0.09     0.01   0.00  -0.10     0.00   0.01   0.02
    32   1    -0.01   0.01  -0.09     0.01   0.00   0.10     0.01   0.01   0.04
    33   1    -0.21   0.10  -0.17     0.18  -0.10   0.14     0.00   0.02   0.00
    34   1     0.06   0.04  -0.30    -0.04  -0.02   0.24    -0.01   0.00   0.00
    35   1    -0.03   0.01  -0.06     0.02  -0.01   0.02     0.10   0.06   0.24
    36   1    -0.04   0.06   0.11     0.03  -0.06  -0.15     0.00   0.01   0.03
    37   1     0.01  -0.16  -0.13    -0.01   0.11   0.09    -0.09   0.04   0.05
    38   1     0.06  -0.12   0.05    -0.03   0.14  -0.08    -0.03  -0.02   0.02
    39   1    -0.03   0.00   0.08     0.02   0.01  -0.02    -0.08   0.08   0.24
    40   1    -0.23  -0.06   0.18     0.20   0.06  -0.14     0.04   0.04  -0.03
    41   1     0.05  -0.05   0.31    -0.04   0.03  -0.25     0.00   0.01  -0.04
    42   1     0.09   0.11  -0.04    -0.05  -0.13   0.07     0.02  -0.05   0.03
    43   1    -0.05  -0.05  -0.10     0.04   0.05   0.14     0.01   0.02   0.06
    44   1     0.01   0.05  -0.20     0.00  -0.04   0.13     0.03   0.01   0.06
    45   1     0.00  -0.06   0.21     0.01   0.03  -0.12    -0.02   0.02   0.03
    46   1     0.10   0.03   0.04    -0.05  -0.02  -0.01     0.16  -0.09   0.19
    47   1     0.05   0.16   0.14    -0.03  -0.09  -0.08     0.08  -0.01   0.04
    48   1     0.08  -0.05  -0.03    -0.04   0.02   0.01    -0.18  -0.05   0.19
    49   8    -0.02   0.05  -0.13     0.00   0.07  -0.25     0.04  -0.08   0.30
    50   1    -0.04   0.05  -0.15     0.03   0.09  -0.27     0.02  -0.11   0.35
    51   1    -0.01   0.03  -0.14    -0.04   0.04  -0.25     0.05  -0.03   0.31
                     13                     14                     15
                      A                      A                      A
 Frequencies --    173.2618               194.3254               200.3797
 Red. masses --      2.7388                 1.6357                 1.3423
 Frc consts  --      0.0484                 0.0364                 0.0318
 IR Inten    --      0.4906                20.8160                19.3707
  Atom  AN      X      Y      Z        X      Y      Z        X      Y      Z
     1   8    -0.01  -0.01   0.07     0.00   0.00   0.01    -0.02   0.00  -0.01
     2   1    -0.01  -0.09   0.03    -0.01   0.06   0.04    -0.09   0.05  -0.01
     3   1     0.00  -0.04   0.18     0.07   0.00  -0.03     0.44  -0.07   0.13
     4  27     0.00   0.00  -0.03     0.00   0.00   0.00     0.00   0.00   0.00
     5   7     0.01   0.00   0.03     0.01  -0.01   0.04    -0.01   0.01  -0.03
     6   6     0.00   0.00  -0.03     0.00  -0.01   0.05     0.00   0.01  -0.04
     7   6     0.00   0.02   0.01    -0.01  -0.02  -0.03     0.01   0.01   0.04
     8   6     0.03   0.00  -0.12     0.00   0.00  -0.02     0.00   0.00   0.02
     9   6     0.00   0.00   0.10     0.01   0.00   0.02    -0.01   0.00  -0.01
    10   6     0.00   0.00  -0.05     0.00  -0.01   0.06    -0.01   0.01  -0.07
    11   6     0.00   0.00  -0.03     0.00  -0.01   0.03     0.00   0.00  -0.02
    12   7     0.00   0.00  -0.07     0.00  -0.01   0.05     0.00   0.00  -0.01
    13   6     0.01   0.00  -0.05     0.00  -0.01   0.02     0.00   0.01   0.00
    14   6     0.00   0.01   0.00    -0.01  -0.02   0.02     0.01   0.01  -0.01
    15   6     0.01  -0.03   0.09    -0.01   0.02  -0.09     0.01  -0.01   0.06
    16   6    -0.01   0.00  -0.05     0.00   0.01  -0.01     0.00   0.00   0.01
    17   7     0.00   0.00  -0.07     0.00   0.01  -0.04     0.00   0.00   0.01
    18   6     0.00   0.00  -0.03     0.00   0.01  -0.03     0.00   0.00   0.01
    19   6    -0.01  -0.02   0.07    -0.02  -0.02   0.09     0.01   0.01  -0.06
    20   6     0.00   0.01   0.00    -0.01   0.02  -0.02     0.01  -0.02   0.02
    21   6     0.00   0.00   0.21     0.01   0.00   0.01    -0.01   0.00  -0.01
    22   6     0.00   0.00   0.10     0.01   0.00  -0.01    -0.01   0.00   0.00
    23   7    -0.01   0.01   0.03     0.01   0.01  -0.05    -0.01  -0.01   0.03
    24   6     0.00   0.00  -0.02     0.01   0.01  -0.06     0.00  -0.01   0.04
    25   6     0.00   0.02   0.01    -0.01   0.02   0.05     0.01  -0.02  -0.02
    26   6    -0.03   0.01  -0.12     0.00   0.00   0.02     0.00   0.00   0.00
    27   6     0.00   0.00  -0.05     0.01   0.01  -0.07    -0.01  -0.01   0.05
    28   1     0.03  -0.01  -0.05    -0.01  -0.04   0.01    -0.01   0.02   0.00
    29   1    -0.03  -0.01  -0.05     0.00   0.05   0.00    -0.01   0.00   0.01
    30   1     0.00  -0.01   0.24     0.01   0.00   0.01    -0.01   0.00  -0.01
    31   1     0.01   0.00  -0.05     0.01   0.01  -0.06    -0.01   0.00   0.05
    32   1    -0.01   0.00  -0.06     0.00  -0.01   0.05    -0.01   0.01  -0.07
    33   1     0.00   0.07   0.00    -0.08   0.08  -0.03     0.08  -0.06   0.03
    34   1     0.00  -0.02   0.00     0.02   0.00  -0.09    -0.01   0.00   0.07
    35   1    -0.13  -0.06  -0.31     0.00  -0.01  -0.02     0.00   0.01   0.03
    36   1     0.03   0.03   0.18     0.03   0.05   0.23    -0.01  -0.03  -0.15
    37   1     0.05   0.13   0.05    -0.04   0.12   0.08     0.03  -0.08  -0.05
    38   1    -0.07  -0.13   0.11    -0.09  -0.17   0.13     0.05   0.11  -0.09
    39   1     0.11  -0.09  -0.31     0.00   0.01   0.02    -0.01   0.00   0.00
    40   1     0.03   0.07   0.00    -0.08  -0.07   0.03     0.06   0.04  -0.02
    41   1     0.00  -0.02  -0.01     0.02  -0.01   0.07    -0.01   0.00  -0.05
    42   1     0.05  -0.17   0.12    -0.05   0.18  -0.13     0.03  -0.12   0.08
    43   1    -0.03   0.04   0.21     0.03  -0.06  -0.22    -0.02   0.04   0.14
    44   1    -0.02  -0.05   0.10     0.01  -0.03   0.13    -0.01   0.02  -0.08
    45   1     0.01  -0.05   0.11     0.01   0.03  -0.10    -0.01  -0.03   0.09
    46   1    -0.25   0.10  -0.23    -0.01  -0.04   0.02     0.01   0.01   0.00
    47   1    -0.02   0.14   0.05    -0.06  -0.08  -0.06     0.05   0.07   0.06
    48   1     0.27   0.06  -0.23     0.01   0.03  -0.02    -0.01  -0.03   0.03
    49   8     0.01  -0.01   0.08     0.03   0.03  -0.03     0.03   0.03  -0.01
    50   1    -0.05  -0.04   0.08    -0.61  -0.41   0.19    -0.61  -0.39   0.18
    51   1     0.00  -0.04   0.08     0.07   0.14  -0.03     0.08   0.11  -0.01
                     16                     17                     18
                      A                      A                      A
 Frequencies --    203.3743               219.3777               244.1109
 Red. masses --      1.1365                 2.6893                 2.1162
 Frc consts  --      0.0277                 0.0763                 0.0743
 IR Inten    --     36.3918                 5.2618                37.1186
  Atom  AN      X      Y      Z        X      Y      Z        X      Y      Z
     1   8    -0.04   0.01   0.01     0.02   0.00   0.03    -0.03  -0.02   0.03
     2   1    -0.18  -0.11  -0.12     0.09  -0.06   0.04    -0.05   0.47   0.27
     3   1     0.70  -0.18   0.50    -0.31   0.04  -0.05     0.39   0.09  -0.42
     4  27     0.00   0.00   0.00     0.00   0.02  -0.04    -0.01   0.00  -0.05
     5   7     0.01  -0.01   0.02     0.00   0.00   0.06     0.01  -0.02  -0.07
     6   6     0.00  -0.01   0.02     0.00   0.00   0.10     0.00  -0.02  -0.03
     7   6     0.00  -0.01  -0.02    -0.01  -0.03  -0.07     0.00   0.00   0.00
     8   6     0.00   0.00   0.00     0.00  -0.01  -0.03     0.01   0.00  -0.02
     9   6     0.01   0.00   0.00    -0.01  -0.01   0.02     0.02  -0.01   0.03
    10   6     0.00  -0.01   0.03     0.01   0.01   0.15     0.01  -0.03   0.05
    11   6     0.00   0.00   0.00    -0.01   0.02   0.01     0.00  -0.02   0.06
    12   7     0.00   0.00   0.00     0.00   0.03  -0.10    -0.01  -0.02   0.07
    13   6     0.00  -0.01   0.00     0.02  -0.01  -0.05    -0.03   0.00   0.05
    14   6    -0.02   0.00   0.04    -0.04  -0.02   0.06     0.00   0.01  -0.01
    15   6     0.00   0.01  -0.03    -0.03   0.02  -0.06     0.01   0.02  -0.04
    16   6    -0.01   0.01  -0.02    -0.01  -0.01  -0.05    -0.02   0.00   0.04
    17   7     0.00   0.01  -0.03     0.01   0.02  -0.09    -0.02   0.01   0.05
    18   6     0.00   0.01  -0.02     0.01   0.01   0.01    -0.01   0.01   0.06
    19   6     0.00   0.00   0.01     0.03   0.02  -0.07     0.01   0.01  -0.06
    20   6     0.00   0.00  -0.01     0.05  -0.03   0.07    -0.02  -0.02  -0.01
    21   6     0.01   0.00  -0.02    -0.01  -0.01   0.00     0.02  -0.01   0.13
    22   6     0.01   0.00  -0.01     0.00  -0.01   0.03     0.02   0.00   0.02
    23   7     0.01   0.00   0.00     0.00  -0.01   0.06     0.02   0.01  -0.09
    24   6     0.00   0.01   0.01    -0.01  -0.01   0.10     0.01   0.02  -0.02
    25   6     0.00   0.00   0.00     0.00  -0.04  -0.07     0.01   0.01  -0.01
    26   6     0.00   0.00   0.01     0.00  -0.01  -0.03     0.01   0.01  -0.02
    27   6     0.00   0.01   0.00    -0.01   0.01   0.14     0.00   0.01   0.08
    28   1     0.00  -0.03  -0.01     0.10  -0.04  -0.06    -0.08   0.01   0.05
    29   1    -0.01   0.01  -0.02    -0.10  -0.03  -0.05    -0.01   0.01   0.05
    30   1     0.01   0.00  -0.03    -0.01  -0.01  -0.04     0.02  -0.01   0.24
    31   1     0.00   0.01   0.01    -0.03   0.01   0.17     0.00   0.01   0.13
    32   1     0.01  -0.01   0.02     0.03   0.01   0.19     0.01  -0.03   0.09
    33   1     0.01   0.01  -0.01     0.23  -0.07   0.10    -0.04  -0.08  -0.02
    34   1     0.00  -0.01  -0.01    -0.05  -0.03   0.23    -0.01  -0.01  -0.03
    35   1     0.01   0.00   0.00    -0.01  -0.04  -0.04    -0.03  -0.01  -0.07
    36   1     0.02   0.01   0.04     0.01  -0.06  -0.20    -0.04  -0.04  -0.17
    37   1     0.00  -0.01   0.00     0.07  -0.19  -0.12     0.01   0.03  -0.01
    38   1    -0.01  -0.03   0.02     0.06   0.18  -0.11     0.11   0.11  -0.10
    39   1     0.00   0.00   0.01     0.00  -0.04  -0.05     0.03  -0.02  -0.05
    40   1    -0.10  -0.01   0.05    -0.21  -0.02   0.09     0.02  -0.03  -0.01
    41   1     0.02   0.00   0.10     0.03  -0.05   0.20    -0.01   0.05  -0.03
    42   1     0.00   0.08  -0.05    -0.03   0.16  -0.10    -0.05   0.13  -0.08
    43   1     0.00  -0.02  -0.09    -0.02  -0.05  -0.18     0.07  -0.03  -0.14
    44   1    -0.01   0.01  -0.01    -0.04   0.06  -0.20     0.00   0.01   0.00
    45   1     0.01   0.01  -0.05     0.05   0.05  -0.19    -0.02  -0.02   0.03
    46   1     0.01  -0.01   0.01    -0.01   0.04  -0.04    -0.03   0.03  -0.04
    47   1    -0.02  -0.05  -0.03    -0.10  -0.17  -0.12     0.00   0.03   0.01
    48   1    -0.01   0.01   0.00     0.01   0.04  -0.04     0.07   0.02  -0.05
    49   8    -0.01  -0.01   0.01     0.01   0.01   0.03    -0.01  -0.01   0.00
    50   1     0.24   0.16  -0.09    -0.20  -0.12   0.06     0.16   0.06   0.02
    51   1    -0.04  -0.08   0.01     0.00  -0.02   0.03     0.01   0.05   0.00
                     19                     20                     21
                      A                      A                      A
 Frequencies --    251.0233               254.3519               271.6366
 Red. masses --      3.9476                 1.6595                 4.0837
 Frc consts  --      0.1466                 0.0633                 0.1775
 IR Inten    --      4.8738                42.5022                 0.4206
  Atom  AN      X      Y      Z        X      Y      Z        X      Y      Z
     1   8    -0.01   0.01  -0.03    -0.02  -0.01   0.03     0.00   0.00   0.00
     2   1     0.00  -0.34  -0.21     0.02   0.53   0.34    -0.01  -0.04  -0.03
     3   1    -0.07  -0.11   0.39     0.41   0.12  -0.49    -0.04  -0.01   0.05
     4  27     0.04  -0.02  -0.04     0.02   0.01   0.02     0.04   0.00   0.00
     5   7    -0.05   0.09  -0.09    -0.03   0.02   0.02     0.01  -0.01   0.22
     6   6    -0.02   0.10  -0.01    -0.02   0.03   0.01    -0.03  -0.02   0.06
     7   6    -0.01   0.08  -0.01    -0.01   0.00   0.00    -0.05  -0.01  -0.02
     8   6    -0.04   0.04   0.00    -0.03  -0.01   0.01     0.01   0.02  -0.04
     9   6    -0.07   0.05  -0.01    -0.04   0.00  -0.01     0.02   0.00   0.16
    10   6    -0.01   0.09   0.09    -0.02   0.04  -0.01    -0.05   0.00  -0.13
    11   6     0.03   0.02   0.07    -0.01   0.03  -0.02    -0.04   0.00  -0.04
    12   7     0.09   0.02   0.05     0.02   0.03  -0.02     0.02  -0.01   0.03
    13   6     0.12  -0.03   0.06     0.05  -0.01  -0.03     0.03  -0.03   0.01
    14   6     0.07  -0.10  -0.04    -0.01  -0.04   0.01     0.00  -0.08  -0.04
    15   6    -0.01  -0.02  -0.06    -0.03  -0.02   0.02    -0.06  -0.07   0.03
    16   6     0.12   0.00   0.05     0.06   0.01  -0.04     0.04   0.02  -0.01
    17   7     0.06  -0.07   0.07     0.05   0.00  -0.04     0.03   0.01  -0.03
    18   6    -0.02  -0.06   0.04     0.02   0.00  -0.04    -0.03   0.02   0.05
    19   6    -0.04   0.05  -0.02     0.01   0.01   0.04    -0.03   0.08  -0.03
    20   6     0.04   0.09  -0.01     0.05   0.04   0.02     0.02   0.07   0.04
    21   6    -0.11   0.02   0.09    -0.04  -0.01  -0.04     0.01  -0.01   0.00
    22   6    -0.08   0.00   0.04    -0.02  -0.03   0.00     0.02  -0.01  -0.16
    23   7    -0.07  -0.06  -0.03    -0.02  -0.03   0.04     0.02   0.01  -0.22
    24   6    -0.05  -0.08  -0.02    -0.01  -0.04   0.01    -0.03   0.02  -0.06
    25   6    -0.02  -0.03   0.01    -0.01  -0.04   0.01    -0.05   0.01   0.01
    26   6    -0.05   0.01  -0.02    -0.02  -0.03   0.00     0.00  -0.03   0.04
    27   6    -0.05  -0.11   0.01    -0.01  -0.03  -0.05    -0.05   0.01   0.13
    28   1     0.12  -0.01   0.06     0.05  -0.04  -0.04     0.01  -0.04   0.00
    29   1     0.18   0.02   0.06     0.05   0.00  -0.04     0.02   0.03  -0.01
    30   1    -0.11   0.01   0.16    -0.04   0.00  -0.08     0.02   0.00   0.00
    31   1    -0.05  -0.11   0.01    -0.03  -0.03  -0.07    -0.06   0.02   0.28
    32   1    -0.04   0.09   0.15    -0.01   0.04  -0.01    -0.06   0.00  -0.29
    33   1     0.00   0.07  -0.01     0.10   0.08   0.03     0.11   0.06   0.06
    34   1     0.07   0.18  -0.03     0.03   0.04   0.06    -0.01   0.12   0.12
    35   1    -0.03   0.03   0.01    -0.01  -0.01   0.03    -0.11  -0.03  -0.18
    36   1    -0.14   0.05  -0.08     0.03   0.05   0.11    -0.10   0.03  -0.15
    37   1     0.00   0.01   0.02    -0.01  -0.03   0.01    -0.11   0.04   0.02
    38   1    -0.01   0.12  -0.04    -0.06  -0.04   0.06     0.02   0.21  -0.07
    39   1    -0.01   0.00  -0.08    -0.01  -0.03  -0.01    -0.10   0.04   0.18
    40   1     0.13  -0.18  -0.05    -0.04  -0.02   0.02     0.09  -0.08  -0.06
    41   1     0.04  -0.12  -0.09     0.01  -0.09   0.04    -0.04  -0.12  -0.12
    42   1    -0.11   0.08  -0.10    -0.02  -0.05   0.03    -0.04  -0.21   0.07
    43   1    -0.01  -0.09  -0.17    -0.08  -0.01   0.05    -0.12  -0.01   0.15
    44   1     0.02  -0.06   0.04    -0.01  -0.04   0.01    -0.04  -0.01   0.04
    45   1     0.01   0.07  -0.01     0.01   0.01  -0.01    -0.03   0.01  -0.05
    46   1    -0.11   0.05  -0.05    -0.03  -0.03   0.00     0.15  -0.18   0.13
    47   1     0.00   0.07  -0.01    -0.01  -0.01  -0.01    -0.11  -0.03  -0.03
    48   1    -0.06   0.03   0.01    -0.05  -0.03   0.02     0.17   0.13  -0.12
    49   8     0.00   0.00   0.00    -0.01  -0.01   0.01    -0.01   0.00  -0.01
    50   1    -0.04  -0.02  -0.01     0.12   0.08  -0.04     0.11   0.01   0.11
    51   1     0.06   0.00  -0.01     0.03   0.01   0.00    -0.07   0.12   0.01
                     22                     23                     24
                      A                      A                      A
 Frequencies --    281.5687               290.5296               305.8100
 Red. masses --      4.6064                 4.6377                 2.9222
 Frc consts  --      0.2152                 0.2306                 0.1610
 IR Inten    --      1.6516                 8.4335                10.0882
  Atom  AN      X      Y      Z        X      Y      Z        X      Y      Z
     1   8    -0.01   0.00  -0.02     0.01   0.00  -0.02     0.00   0.00   0.01
     2   1    -0.06   0.05  -0.02     0.01  -0.28  -0.16     0.01  -0.03   0.00
     3   1     0.13  -0.01  -0.03    -0.20  -0.07   0.26    -0.03  -0.01   0.03
     4  27    -0.06   0.02   0.00     0.01   0.09  -0.03    -0.01   0.07   0.01
     5   7    -0.05   0.04   0.11    -0.06  -0.04  -0.08     0.03   0.06   0.00
     6   6     0.03   0.06   0.08    -0.07  -0.04  -0.05     0.07   0.07  -0.02
     7   6     0.07  -0.04  -0.04    -0.04  -0.08   0.03     0.13   0.01  -0.02
     8   6     0.02  -0.08  -0.04    -0.07  -0.12   0.00     0.08  -0.04   0.01
     9   6    -0.07  -0.01   0.08    -0.07  -0.10  -0.03     0.02   0.01   0.01
    10   6     0.05   0.09   0.04    -0.06   0.02  -0.02     0.03   0.01  -0.03
    11   6     0.03   0.08  -0.07    -0.09   0.08   0.05     0.02  -0.01   0.04
    12   7    -0.01   0.08  -0.14    -0.05   0.07   0.08     0.01  -0.02   0.08
    13   6     0.00   0.06  -0.04    -0.04   0.04   0.04     0.00  -0.07   0.03
    14   6    -0.01   0.10   0.06    -0.08   0.01  -0.03     0.02  -0.08  -0.02
    15   6     0.05   0.08   0.03    -0.14   0.05   0.02    -0.01  -0.05  -0.01
    16   6     0.00  -0.05   0.04     0.05   0.05   0.03    -0.02  -0.06  -0.01
    17   7    -0.01  -0.06   0.16     0.06   0.08   0.03     0.01  -0.01  -0.07
    18   6     0.04  -0.07   0.08     0.10   0.08   0.02     0.01  -0.01  -0.04
    19   6     0.07  -0.08  -0.03     0.13   0.03   0.04     0.05  -0.10   0.01
    20   6     0.00  -0.10  -0.06     0.08   0.01  -0.02     0.01  -0.12  -0.02
    21   6    -0.09   0.00   0.01     0.00  -0.08   0.04    -0.03  -0.01  -0.01
    22   6    -0.06  -0.01  -0.08     0.07  -0.12   0.01    -0.06   0.01  -0.01
    23   7    -0.05  -0.05  -0.13     0.07  -0.05  -0.02    -0.06   0.04   0.00
    24   6     0.04  -0.08  -0.09     0.06  -0.04  -0.01    -0.05   0.04   0.03
    25   6     0.09   0.00   0.05     0.02  -0.10   0.02    -0.08   0.01  -0.03
    26   6     0.05   0.04   0.03     0.04  -0.15  -0.02    -0.08   0.01   0.00
    27   6     0.04  -0.10  -0.04     0.05   0.03  -0.01    -0.02   0.00   0.03
    28   1     0.09   0.11  -0.02    -0.08   0.05   0.04    -0.03  -0.08   0.03
    29   1     0.09  -0.12   0.02     0.06   0.06   0.03    -0.07  -0.02   0.01
    30   1    -0.09   0.01   0.02     0.01   0.00   0.09    -0.04  -0.06  -0.01
    31   1     0.03  -0.10  -0.04    -0.02   0.04  -0.03    -0.01  -0.01   0.06
    32   1     0.05   0.09   0.05     0.02   0.02  -0.02    -0.03   0.02  -0.06
    33   1    -0.11  -0.13  -0.08     0.02   0.02  -0.03    -0.01  -0.13  -0.02
    34   1     0.05  -0.12  -0.16     0.10  -0.03  -0.06     0.01  -0.15  -0.03
    35   1    -0.05  -0.20  -0.11    -0.07  -0.11   0.00     0.09  -0.09   0.02
    36   1     0.03  -0.10  -0.08     0.17   0.04   0.08     0.13  -0.09   0.08
    37   1     0.04   0.13   0.09     0.00  -0.06   0.03    -0.08  -0.07  -0.06
    38   1     0.17  -0.06  -0.05     0.14  -0.03   0.05     0.02  -0.18   0.03
    39   1     0.01   0.17   0.10     0.07  -0.18  -0.06    -0.10   0.01   0.02
    40   1    -0.12   0.16   0.09     0.00  -0.01  -0.05     0.08  -0.11  -0.04
    41   1     0.05   0.10   0.16    -0.11  -0.01  -0.10    -0.01  -0.06  -0.08
    42   1     0.13   0.04   0.06    -0.19   0.02   0.02    -0.06  -0.03  -0.02
    43   1     0.01   0.11   0.08    -0.15   0.05   0.03    -0.02  -0.07  -0.04
    44   1     0.17  -0.08   0.15    -0.03  -0.12   0.05    -0.12   0.07  -0.10
    45   1     0.18   0.01  -0.13    -0.04  -0.13   0.09     0.18   0.02  -0.04
    46   1     0.13  -0.01   0.08    -0.01  -0.14  -0.04    -0.06   0.01   0.01
    47   1     0.01  -0.14  -0.08     0.01  -0.01   0.06     0.17  -0.01  -0.03
    48   1     0.12  -0.05  -0.08    -0.07  -0.16   0.00     0.07  -0.05   0.01
    49   8     0.00   0.01   0.00    -0.01   0.00  -0.02    -0.02   0.00  -0.03
    50   1     0.02  -0.05   0.15     0.11  -0.06   0.23     0.28  -0.07   0.44
    51   1    -0.06   0.14   0.03    -0.10   0.24   0.02    -0.19   0.47   0.05
                     25                     26                     27
                      A                      A                      A
 Frequencies --    311.0053               320.5706               353.2303
 Red. masses --      4.7640                 1.3575                 3.3415
 Frc consts  --      0.2715                 0.0822                 0.2456
 IR Inten    --      3.3112                40.5577                 3.8685
  Atom  AN      X      Y      Z        X      Y      Z        X      Y      Z
     1   8    -0.02  -0.01  -0.02     0.00   0.00   0.00     0.01   0.00   0.00
     2   1     0.00   0.04   0.01     0.01   0.01   0.02    -0.08  -0.06  -0.08
     3   1     0.14  -0.01  -0.02    -0.03   0.01  -0.03    -0.10  -0.01   0.05
     4  27     0.06   0.06   0.00    -0.01   0.03  -0.01     0.00   0.01   0.09
     5   7     0.08  -0.01  -0.04    -0.01   0.02   0.03     0.01   0.02  -0.13
     6   6     0.03  -0.02   0.05     0.01   0.02   0.01     0.02   0.02  -0.10
     7   6     0.02  -0.01  -0.02     0.03  -0.01   0.00     0.04   0.02   0.00
     8   6     0.06   0.02   0.00     0.01  -0.03   0.00     0.02  -0.01   0.01
     9   6     0.09  -0.01  -0.05    -0.02  -0.01   0.02     0.01   0.00  -0.05
    10   6     0.01  -0.02   0.10     0.00   0.01  -0.02     0.01  -0.02   0.05
    11   6    -0.06   0.02  -0.08     0.00   0.00   0.01     0.00  -0.02   0.03
    12   7    -0.02   0.03  -0.19     0.00   0.00   0.05    -0.02  -0.01   0.01
    13   6     0.01  -0.03  -0.02     0.00  -0.01   0.05    -0.04  -0.01  -0.16
    14   6    -0.07  -0.13  -0.02     0.02  -0.02  -0.01    -0.07   0.02   0.04
    15   6    -0.12  -0.10   0.01     0.00  -0.01   0.00    -0.01   0.00   0.01
    16   6     0.01  -0.06   0.09    -0.01  -0.01   0.03     0.03  -0.02  -0.16
    17   7    -0.02  -0.03   0.22     0.01   0.02  -0.02     0.02  -0.01   0.00
    18   6    -0.05  -0.01   0.10     0.02   0.01  -0.01     0.00  -0.01   0.03
    19   6    -0.04   0.00  -0.02     0.04  -0.03   0.00     0.02  -0.01   0.01
    20   6    -0.07  -0.02  -0.02     0.00  -0.04  -0.02     0.08  -0.01   0.04
    21   6     0.09  -0.03   0.00    -0.02  -0.01  -0.01     0.00  -0.01   0.10
    22   6     0.04  -0.01   0.04    -0.02  -0.01  -0.02    -0.01   0.00  -0.06
    23   7     0.03   0.08   0.03    -0.01   0.00  -0.01    -0.01   0.01  -0.14
    24   6    -0.04   0.10  -0.05    -0.01   0.00   0.01    -0.02   0.02  -0.10
    25   6    -0.13   0.03  -0.01    -0.02   0.00   0.00    -0.05   0.02   0.00
    26   6    -0.07  -0.07   0.01    -0.01  -0.01   0.00    -0.03  -0.01   0.01
    27   6    -0.01   0.03  -0.10     0.00   0.01   0.01    -0.02  -0.01   0.05
    28   1     0.14   0.04   0.02    -0.02   0.00   0.05    -0.08  -0.12  -0.19
    29   1     0.11  -0.11   0.06    -0.03   0.04   0.04     0.05  -0.13  -0.19
    30   1     0.08  -0.05   0.00    -0.02   0.00  -0.02    -0.01  -0.02   0.26
    31   1     0.08   0.02  -0.19    -0.01   0.01   0.03    -0.02  -0.01   0.15
    32   1     0.05  -0.02   0.19    -0.02   0.01  -0.06     0.00  -0.02   0.14
    33   1    -0.20  -0.05  -0.05    -0.05  -0.06  -0.03     0.33   0.05   0.09
    34   1     0.01   0.04  -0.14     0.02  -0.06  -0.06    -0.04  -0.05   0.24
    35   1     0.09   0.06   0.04    -0.01  -0.07  -0.02     0.05   0.01   0.05
    36   1    -0.09  -0.04  -0.11     0.07  -0.02   0.03     0.02  -0.02   0.00
    37   1    -0.20   0.07   0.00    -0.02  -0.02  -0.01    -0.12   0.11   0.03
    38   1     0.07   0.08  -0.05     0.04  -0.07   0.01     0.01   0.01   0.00
    39   1    -0.07  -0.16  -0.01    -0.03   0.01   0.02    -0.06   0.01   0.05
    40   1    -0.08  -0.13  -0.02     0.09  -0.04  -0.03    -0.30   0.13   0.09
    41   1    -0.07  -0.19  -0.01    -0.02   0.00  -0.08     0.03  -0.03   0.24
    42   1    -0.08  -0.24   0.05    -0.02  -0.01   0.00     0.00   0.04   0.00
    43   1    -0.24  -0.04   0.13     0.00  -0.01   0.00     0.01  -0.01  -0.02
    44   1    -0.19   0.01   0.02    -0.03   0.01  -0.02    -0.03  -0.03   0.07
    45   1     0.05   0.05  -0.11     0.06  -0.01  -0.01     0.01  -0.03   0.08
    46   1    -0.11  -0.07  -0.01     0.00  -0.02   0.01     0.02  -0.07   0.04
    47   1    -0.03  -0.11  -0.06     0.04  -0.02  -0.01     0.13   0.10   0.03
    48   1     0.01   0.02   0.02     0.04  -0.03  -0.02    -0.03  -0.04   0.03
    49   8     0.01   0.01   0.02     0.03  -0.01   0.03     0.00   0.00   0.01
    50   1    -0.16  -0.02  -0.11    -0.32   0.11  -0.58    -0.14   0.04  -0.23
    51   1     0.09  -0.11  -0.01     0.23  -0.62  -0.06     0.18  -0.17  -0.05
                     28                     29                     30
                      A                      A                      A
 Frequencies --    359.7245               390.4279               397.4016
 Red. masses --      4.0448                 5.2441                 5.4835
 Frc consts  --      0.3084                 0.4710                 0.5102
 IR Inten    --      2.6214                 1.7387                 1.0871
  Atom  AN      X      Y      Z        X      Y      Z        X      Y      Z
     1   8     0.00   0.00   0.00     0.00   0.00   0.01     0.00   0.00   0.00
     2   1    -0.02   0.02   0.01    -0.06   0.02  -0.01    -0.01  -0.02  -0.01
     3   1    -0.01   0.01  -0.02    -0.03   0.01  -0.02    -0.04   0.00   0.00
     4  27     0.07  -0.01   0.00    -0.01   0.00   0.00     0.00   0.02  -0.05
     5   7     0.03   0.05   0.04     0.08   0.12  -0.01     0.16  -0.09   0.03
     6   6    -0.03   0.05   0.01     0.08   0.15   0.00     0.02  -0.13   0.00
     7   6    -0.11   0.14   0.00     0.17   0.11  -0.04    -0.04   0.00   0.00
     8   6    -0.04   0.19   0.01     0.14   0.06   0.01     0.11   0.12   0.02
     9   6     0.04   0.07   0.02     0.08   0.05   0.01     0.20   0.02   0.02
    10   6    -0.03   0.03  -0.01    -0.01   0.05   0.01     0.00  -0.12  -0.06
    11   6     0.01  -0.01   0.00    -0.05   0.01   0.02    -0.06   0.01   0.05
    12   7     0.00  -0.01  -0.01    -0.06   0.00   0.05    -0.07   0.02   0.07
    13   6    -0.04   0.04  -0.01    -0.10   0.00   0.00    -0.08   0.03  -0.02
    14   6     0.02   0.13   0.03    -0.13  -0.03  -0.02    -0.10   0.05   0.00
    15   6     0.08   0.09   0.00    -0.13  -0.03   0.01    -0.08   0.05   0.03
    16   6    -0.05  -0.03   0.02    -0.10   0.02   0.00     0.08   0.02  -0.02
    17   7     0.00   0.01   0.01    -0.06   0.01  -0.05     0.07   0.01   0.07
    18   6     0.01   0.01  -0.01    -0.05   0.00  -0.02     0.06   0.00   0.05
    19   6     0.07  -0.10   0.00    -0.12   0.06  -0.01     0.09   0.03   0.03
    20   6    -0.01  -0.13  -0.03    -0.13   0.05   0.02     0.11   0.03   0.00
    21   6     0.00   0.00  -0.01     0.02   0.00   0.00    -0.01  -0.04  -0.05
    22   6     0.03  -0.07  -0.02     0.07  -0.07  -0.01    -0.19   0.06   0.02
    23   7     0.02  -0.06  -0.03     0.06  -0.14   0.01    -0.17  -0.06   0.03
    24   6    -0.04  -0.05   0.00     0.06  -0.16   0.00    -0.05  -0.13   0.00
    25   6    -0.13  -0.12   0.01     0.15  -0.13   0.04     0.04  -0.01   0.01
    26   6    -0.08  -0.17  -0.01     0.13  -0.08  -0.01    -0.09   0.14   0.02
    27   6    -0.03  -0.02   0.00    -0.02  -0.04   0.00    -0.03  -0.12  -0.05
    28   1    -0.05   0.07   0.00    -0.13   0.00   0.00    -0.16   0.01  -0.03
    29   1    -0.07  -0.05   0.02    -0.13   0.02   0.00     0.15  -0.02  -0.03
    30   1     0.00   0.00  -0.02     0.02   0.00  -0.01    -0.03  -0.29  -0.11
    31   1    -0.07  -0.01   0.01    -0.10  -0.03   0.00    -0.11  -0.11  -0.13
    32   1    -0.07   0.03  -0.03    -0.10   0.05   0.00     0.09  -0.12  -0.14
    33   1    -0.07  -0.16  -0.04    -0.14   0.05   0.02     0.15   0.06   0.01
    34   1     0.01  -0.18  -0.08    -0.12   0.06   0.01     0.09   0.02   0.03
    35   1    -0.03   0.26   0.03     0.16   0.02   0.04     0.11   0.22   0.01
    36   1     0.14  -0.10   0.04    -0.16   0.03  -0.07     0.06   0.04   0.03
    37   1    -0.15  -0.14   0.00     0.18  -0.06   0.07     0.07  -0.02   0.00
    38   1     0.08  -0.16   0.01    -0.14   0.13  -0.03     0.11   0.03   0.02
    39   1    -0.07  -0.25  -0.03     0.16  -0.06  -0.04    -0.06   0.24   0.01
    40   1    -0.01   0.16   0.03    -0.14  -0.03  -0.02    -0.14   0.08   0.01
    41   1     0.04   0.18   0.05    -0.13  -0.04  -0.01    -0.09   0.03   0.03
    42   1     0.11   0.14   0.00    -0.16  -0.09   0.02    -0.11   0.05   0.02
    43   1     0.16   0.08  -0.03    -0.16  -0.01   0.06    -0.06   0.05   0.02
    44   1    -0.19  -0.10  -0.01     0.21  -0.18   0.11     0.15  -0.01  -0.01
    45   1    -0.17   0.14   0.01     0.24   0.14  -0.10    -0.14   0.02  -0.01
    46   1    -0.12  -0.22  -0.01     0.10  -0.08  -0.03    -0.07   0.20   0.01
    47   1    -0.14   0.16   0.00     0.19   0.03  -0.07    -0.07  -0.01   0.00
    48   1    -0.07   0.24   0.01     0.11   0.06   0.03     0.11   0.18   0.01
    49   8     0.00   0.00  -0.01     0.00   0.00   0.00     0.00   0.00   0.00
    50   1     0.00  -0.02   0.03    -0.02   0.01  -0.04    -0.04   0.00  -0.06
    51   1    -0.04   0.01   0.00     0.01  -0.04  -0.01     0.04  -0.05  -0.01
                     31                     32                     33
                      A                      A                      A
 Frequencies --    428.1970               436.2205               444.6581
 Red. masses --      3.7269                 5.0881                 8.2453
 Frc consts  --      0.4026                 0.5705                 0.9605
 IR Inten    --      6.4398                 1.4623                 1.7249
  Atom  AN      X      Y      Z        X      Y      Z        X      Y      Z
     1   8    -0.01   0.00   0.00     0.00   0.00   0.00     0.00   0.00   0.01
     2   1     0.15  -0.03   0.06    -0.06   0.02  -0.02    -0.04   0.02   0.00
     3   1     0.05  -0.01   0.03     0.00   0.01  -0.02    -0.02   0.01  -0.02
     4  27     0.00  -0.03   0.07    -0.07   0.00   0.00     0.25  -0.07  -0.01
     5   7     0.04  -0.04  -0.10     0.04  -0.06  -0.03    -0.04   0.01  -0.03
     6   6     0.00  -0.06   0.01    -0.01  -0.06  -0.12    -0.05   0.02  -0.05
     7   6    -0.04  -0.01   0.00    -0.03   0.01   0.00     0.07  -0.12   0.01
     8   6     0.01   0.05   0.00     0.03   0.06   0.01     0.01  -0.18   0.00
     9   6     0.06   0.01  -0.06     0.08  -0.01   0.11    -0.08  -0.03   0.04
    10   6     0.04   0.01   0.08     0.05   0.06   0.00    -0.05   0.06  -0.01
    11   6    -0.02   0.07  -0.12    -0.03   0.18   0.11    -0.08   0.07   0.07
    12   7     0.03   0.06  -0.10     0.02   0.16   0.01    -0.01   0.05   0.04
    13   6     0.06   0.03   0.09     0.09   0.04   0.01    -0.08   0.07  -0.02
    14   6     0.03  -0.06  -0.02     0.01   0.00   0.01    -0.13   0.11  -0.01
    15   6    -0.06  -0.01   0.00    -0.11   0.13   0.04    -0.13   0.11   0.04
    16   6    -0.07   0.04   0.09     0.08  -0.04   0.01    -0.06  -0.03   0.04
    17   7    -0.01   0.09  -0.10    -0.01  -0.14  -0.02    -0.01  -0.03  -0.02
[...]
 00948,0.00000716,0.00000402,-0.00005607,0.00002195,0.00002140,-0.00003
 032,0.00002345,-0.00000396,0.00000407,-0.00001262,-0.00000191,-0.00099
 031,0.00132204,0.00022366,0.00001167,-0.00000878,-0.00000358,0.0045289
 6,-0.00267160,0.00118285,0.00798943,0.05253083,0.00001293,-0.00002622,
 0.00010498,-0.00001194,0.00000891,-0.00009835,-0.00000595,0.00001058,-
 0.00002924,-0.00008219,-0.00003501,-0.00008323,0.00067528,-0.00075506,
 -0.00063594,-0.00022865,0.00075516,-0.00036432,-0.00056636,0.00063979,
 -0.00380172,-0.08372138,-0.01650564,-0.25820441,-0.00146133,-0.0036822
 6,0.00250988,0.00012253,-0.00013895,-0.00017907,-0.00006593,-0.0001447
 4,0.00003421,-0.00011675,0.00009950,-0.00000999,0.00003355,-0.00000492
 ,-0.00000912,0.00000632,-0.00000622,0.00000740,0.00001791,-0.00002665,
 0.00000637,0.00000834,0.00000403,0.00000998,0.00008202,0.00001932,0.00
 006561,-0.00010195,0.00005079,0.00000149,0.00002271,0.00000005,-0.0000
 0095,0.00000789,-0.00001010,-0.00001106,-0.00032331,0.00157073,0.00084
 503,-0.00089221,-0.00102841,0.00004801,0.00066533,0.00019186,0.0000564
 9,-0.00015634,-0.00019504,-0.00006700,-0.00000792,0.00000570,0.0000111
 3,-0.00007886,0.00006620,-0.00000860,0.00014450,0.00002684,0.00000100,
 -0.00002430,-0.00000345,0.00000494,0.00000040,-0.00000321,-0.00000888,
 0.00008413,-0.00017793,-0.00036506,-0.00000068,-0.00001155,0.00000927,
 0.00001445,-0.00000617,-0.00003530,0.00000040,0.00000008,0.00000479,-0
 .00001190,0.00000170,-0.00000385,-0.00814880,-0.00186734,-0.02150819,-
 0.00001310,-0.00000855,0.00000394,0.00001714,-0.00001135,0.00001213,-0
 .00002096,-0.00000381,-0.00001431,0.00004615,-0.00002940,0.00002421,0.
 00000236,0.00000139,-0.00000104,-0.00001548,0.00000177,0.00000282,-0.0
 0001836,0.00000954,0.00001421,0.00000212,0.00000876,-0.00000408,0.0000
 0664,-0.00000584,-0.00000108,0.00027980,0.00019597,0.00142969,0.000034
 81,-0.00001071,-0.00001927,-0.00114224,0.00077009,0.00107946,0.0949502
 8,0.02026233,0.27916630,0.00057242,0.00014882,-0.00027800,-0.00066058,
 -0.00016059,0.00040912,-0.00010067,0.00000968,-0.00000668,-0.00012175,
 0.00220525,-0.00425408,-0.00055990,-0.00060799,-0.00072134,-0.00064998
 ,0.00114467,0.00013167,0.00009554,-0.00002686,0.00019765,0.00002796,0.
 00003286,0.00010147,0.00057910,-0.00020929,0.00004150,0.00077086,-0.00
 009502,-0.00019637,-0.00062222,-0.00192735,-0.00003063,0.00070650,0.00
 128023,0.00231182,-0.00009070,-0.00058261,-0.00057671,-0.00005338,-0.0
 0000453,-0.00059422,-0.00020044,-0.00004426,-0.00006178,-0.00149022,0.
 00029140,-0.00203996,-0.00099345,-0.00169220,0.00049395,0.00001317,0.0
 0179119,-0.00014490,-0.00022330,0.00006237,-0.00001758,0.00040263,0.00
 027706,0.00101279,0.00007215,0.00013276,-0.00008553,-0.00007148,-0.000
 18642,0.00010757,-0.00011455,0.00054341,-0.00001598,-0.00071484,-0.000
 77590,-0.00018077,0.00001116,-0.00000009,0.00006833,0.00002324,-0.0000
 5009,0.00004127,0.00097910,-0.00008787,0.00010046,0.00017918,0.0002804
 9,0.00031441,0.00168902,-0.00039659,0.00078629,0.00000042,0.00000684,0
 .00001249,0.00005284,-0.00000977,-0.00000299,0.00004444,0.00002965,0.0
 0001721,-0.00030138,-0.00038277,0.00025002,0.00014258,0.00000767,-0.00
 007515,0.00006629,0.00001221,0.00004274,0.00009665,-0.00009805,0.00004
 285,0.00003115,0.00000484,-0.00002138,0.00023516,0.00015048,0.00009255
 ,0.00000327,0.00002264,-0.00002315,0.00031592,-0.00018682,0.00026127,0
 .00008117,0.00001632,0.00021137,0.00015893,0.00004033,0.00003993,0.000
 06106,0.00000214,-0.00003807,-0.00000097,0.00004766,0.00000831,0.00000
 711,-0.00000345,-0.00010957,0.00001574,-0.00000074,-0.00000835,0.00017
 306,0.00019919,-0.00006281,0.00000155,0.00002589,-0.00003263,0.1344700
 4,-0.00011552,-0.00011835,0.00026807,0.00022646,0.00027288,-0.00026824
 ,-0.00005240,0.00001161,-0.00003626,0.00022708,-0.00049846,0.00412148,
 -0.00038987,0.00017492,-0.00047506,0.00072323,-0.00046635,0.00016822,0
 .00008145,0.00002730,0.00013523,-0.00000923,-0.00007210,0.00006708,0.0
 0070634,-0.00041960,-0.00006396,-0.00079197,0.00040012,-0.00027442,-0.
 00020002,0.00195167,0.00040551,0.00059980,-0.00151910,-0.00177050,-0.0
 0028160,-0.00067639,0.00039963,0.00022260,-0.00000567,0.00031874,-0.00
 003175,0.00007242,0.00017345,-0.00020420,0.00002115,-0.00058411,-0.000
 90759,-0.00101044,0.00065277,-0.00015034,0.00130711,-0.00006383,-0.000
 00833,0.00000903,-0.00012881,0.00009054,0.00008666,0.00044387,0.000016
 44,0.00042528,-0.00001906,-0.00046953,-0.00022365,0.00010356,0.0002600
 7,0.00013931,-0.00042988,-0.00035622,-0.00026159,-0.00007453,-0.000024
 51,0.00002858,0.00001745,0.00000625,-0.00000335,-0.00003318,0.00050902
 ,-0.00007840,0.00006974,0.00010890,0.00031518,0.00012704,0.00060339,-0
 .00107205,0.00034963,0.00004041,0.00001044,0.00001758,0.00001698,-0.00
 003874,0.00000324,0.00000401,0.00009307,0.00006822,-0.00012854,-0.0001
 7787,0.00010574,-0.00003392,-0.00001861,-0.00003950,0.00006130,0.00006
 102,0.00000823,-0.00000607,-0.00004079,0.00006347,0.00003671,-0.000007
 44,0.00002125,0.00006729,0.00007951,0.00004478,0.00002904,-0.00001164,
 0.00001544,-0.00030284,-0.00006048,-0.00012171,-0.00001243,0.00001201,
 -0.00011801,-0.00007352,0.00002562,-0.00000925,-0.00007682,0.00017319,
 0.00007338,0.00001596,-0.00001643,-0.00000616,0.00000724,0.00005720,-0
 .00005103,0.00003330,-0.00004634,-0.00002590,0.00022306,0.00017990,-0.
 00009692,0.00000387,0.00010196,-0.00000044,-0.19369973,0.35973173,0.00
 041057,0.00028337,-0.00061003,-0.00065921,-0.00032243,0.00060375,-0.00
 004176,-0.00005009,0.00013129,-0.00282130,0.00699266,-0.01355396,0.000
 86349,-0.00012205,0.00131218,-0.00005611,0.00009771,-0.00078330,0.0000
 3993,0.00005709,-0.00007426,0.00003044,0.00004909,-0.00013125,-0.00066
 765,0.00039028,0.00021884,-0.00015582,-0.00028860,0.00003762,0.0003903
 7,0.00066386,0.00025835,0.00021680,-0.00005734,-0.00004882,-0.00045260
 ,-0.00011046,-0.00022702,0.00001320,-0.00007308,-0.00008220,-0.0000763
 2,-0.00007705,0.00005892,0.00044872,0.00066738,-0.00028229,-0.00068341
 ,-0.00179733,0.00050358,-0.00002161,0.00108810,-0.00018835,-0.00013477
 ,-0.00000306,-0.00018262,-0.00010385,0.00006437,-0.00026280,-0.0000049
 9,-0.00032967,0.00004804,0.00017946,0.00020570,-0.00025692,-0.00021268
 ,0.00020096,0.00026627,-0.00040197,-0.00033684,0.00011733,0.00005670,-
 0.00008029,-0.00010256,0.00004371,-0.00009032,0.00000440,0.00064659,-0
 .00014011,0.00016217,0.00018295,-0.00001121,-0.00002993,0.00028444,0.0
 0019644,-0.00104242,-0.00011804,0.00000679,-0.00004265,0.00002373,0.00
 010686,-0.00003524,-0.00000645,-0.00011407,-0.00001215,0.00005559,0.00
 010757,-0.00001299,0.00018597,-0.00000565,0.00000209,-0.00014646,-0.00
 007976,0.00000655,0.00009214,0.00008081,0.00004130,-0.00008500,0.00005
 713,-0.00006679,0.00024550,0.00009562,0.00017001,-0.00007781,0.0000836
 6,-0.00002795,-0.00011129,0.00000679,0.00002767,0.00010682,-0.00002220
 ,-0.00003284,0.00008989,-0.00001282,-0.00004983,0.00010138,-0.00011956
 ,-0.00000945,-0.00004046,0.00013124,0.00001732,-0.00005671,-0.00008771
 ,0.00003037,-0.00012546,0.00018158,0.00011173,-0.00018086,-0.00016561,
 0.00015699,-0.00006283,-0.00014036,-0.00004327,0.03528681,0.10559920,0
 .50411999,-0.00012691,-0.00004866,0.00003995,0.00015563,0.00013856,0.0
 0002640,0.00003390,-0.00002136,0.00005994,-0.00011585,-0.00030751,0.00
 041351,0.00019153,0.00005249,0.00011236,0.00015535,-0.00013408,-0.0001
 0293,0.00000499,0.00002618,-0.00005269,-0.00000454,-0.00001084,-0.0000
 5459,-0.00022579,0.00003741,-0.00000583,-0.00007595,0.00002510,-0.0000
 1989,-0.00006330,0.00007465,0.00007765,0.00009214,0.00000593,-0.000272
 79,0.00007878,0.00024351,-0.00023568,-0.00010131,0.00002736,-0.0001098
 6,0.00002847,-0.00002375,-0.00000715,-0.00013601,-0.00036399,0.0005562
 0,0.00034476,0.00069986,-0.00032084,0.00009171,-0.00092981,0.00014059,
 0.00003594,0.00003028,0.00014314,-0.00002537,-0.00002798,-0.00009772,-
 0.00007238,-0.00009511,0.00007019,0.00002318,0.00012004,-0.00009488,0.
 00006514,-0.00026290,0.00007301,0.00036017,0.00033427,0.00004888,0.000
 00434,-0.00000271,-0.00002620,0.00000041,0.00001830,-0.00003509,-0.000
 39686,-0.00000551,-0.00007814,-0.00003706,-0.00009874,-0.00006204,-0.0
 0030700,0.00065168,0.00007521,-0.00001525,-0.00000089,-0.00001368,-0.0
 0001422,-0.00000370,0.00000303,-0.00000738,-0.00001238,-0.00001104,0.0
 0002752,0.00004008,-0.00005719,-0.00005118,0.00001153,0.00002746,-0.00
 004343,-0.00001553,-0.00001385,-0.00002344,0.00000468,-0.00007201,-0.0
 0001693,-0.00000734,0.00000689,-0.00013808,-0.00012530,-0.00008413,-0.
 00000950,-0.00000260,0.00001256,0.00013253,0.00001545,0.00001854,-0.00
 000456,-0.00000397,0.00004584,-0.00000594,0.00000240,0.00000724,-0.000
 00379,-0.00002303,-0.00001334,0.00000026,-0.00001099,-0.00000446,-0.00
 000838,0.00000017,0.00003413,-0.00003559,0.00003725,0.00001118,-0.0000
 3884,-0.00007492,0.00003667,-0.00000335,-0.00001190,0.00001051,-0.0915
 1287,0.17175271,0.07888788,0.08820405,-0.00005393,-0.00000174,-0.00001
 685,0.00006651,0.00004090,0.00007034,0.00002478,-0.00001032,0.00003290
 ,-0.00013556,-0.00007865,-0.00032320,0.00025129,0.00018150,0.00023684,
 0.00013818,-0.00019107,-0.00009166,-0.00001154,0.00001530,-0.00004457,
 0.00000480,0.00000023,-0.00005029,-0.00024959,0.00011427,-0.00001278,-
 0.00000475,0.00004111,-0.00001430,0.00002825,-0.00007509,-0.00007638,-
 0.00016580,0.00008753,0.00028210,0.00011058,0.00005615,-0.00010968,-0.
 00000934,-0.00000167,0.00002927,-0.00000989,-0.00001706,0.00001986,-0.
 00021215,-0.00011019,0.00012306,0.00007681,0.00021363,-0.00009617,-0.0
 0004038,-0.00037395,0.00012485,-0.00000613,0.00000974,0.00007202,0.000
 01727,0.00001680,0.00000194,-0.00002870,-0.00009841,0.00003328,0.00013
 604,0.00009291,-0.00004185,-0.00000987,-0.00007336,0.00005808,0.000180
 88,0.00006585,0.00005006,0.00000884,-0.00000055,0.00001025,-0.00000853
 ,0.00000819,0.00000133,-0.00017039,-0.00005557,-0.00007764,-0.00001270
 ,-0.00002808,-0.00001020,0.00026222,0.00034466,-0.00013098,-0.00001463
 ,-0.00000054,-0.00000527,-0.00000654,-0.00000392,0.00000636,0.00000304
 ,-0.00000315,0.00000935,0.00000688,-0.00000387,-0.00001331,0.00000386,
 0.00000510,0.00000255,-0.00004046,-0.00001455,-0.00000984,0.00000101,-
 0.00000017,-0.00003419,-0.00001002,-0.00000406,-0.00000569,-0.00007588
 ,-0.00004680,-0.00003729,-0.00000875,0.00000057,-0.00000731,-0.0000027
 0,-0.00001100,-0.00001567,-0.00000303,0.00000485,-0.00001594,0.0000030
 5,0.00000328,-0.00001332,-0.00000821,0.00001208,0.00001424,-0.00000112
 ,-0.00001365,0.00000613,-0.00000664,-0.00001031,0.00002998,0.00000840,
 0.00000749,0.00000152,-0.00004425,-0.00007549,0.00002656,-0.00001157,-
 0.00002292,0.00000426,0.16056231,-0.31878076,-0.16444145,-0.16387234,0
 .32049866,-0.00010840,-0.00011145,0.00023175,0.00013998,0.00010955,-0.
 00026989,-0.00001371,0.00002078,-0.00006212,-0.00033720,0.00027525,0.0
 0011211,0.00018567,0.00031053,0.00015705,0.00016632,-0.00040558,0.0000
 5036,-0.00000799,-0.00000888,0.00000136,-0.00002160,-0.00002897,0.0000
 2404,-0.00006166,-0.00006621,-0.00006911,-0.00025156,0.00008534,0.0001
 1524,0.00007757,0.00090456,-0.00004297,0.00013500,-0.00071679,-0.00107
 160,-0.00006548,-0.00010926,0.00013245,0.00001572,0.00001934,0.0000551
 6,0.00002552,-0.00001054,0.00003980,0.00036000,-0.00010790,-0.00014419
 ,-0.00051143,-0.00048167,0.00055963,0.00003392,0.00070095,0.00001297,0
 .00005944,0.00001476,-0.00000835,0.00002186,-0.00000579,0.00003554,0.0
 0002559,0.00007824,-0.00000738,-0.00030786,-0.00000784,0.00001185,0.00
 032464,-0.00036651,0.00019862,-0.00003990,0.00017881,-0.00004961,-0.00
 001224,0.00001043,0.00001047,-0.00001231,0.00002083,-0.00000523,0.0001
 1132,-0.00005474,-0.00002707,0.00002776,0.00005947,0.00001462,0.000290
 00,-0.00006047,-0.00011665,0.00004616,-0.00000097,0.00001752,-0.000003
 47,-0.00004807,0.00002732,-0.00001629,0.00002822,-0.00000084,-0.000013
 26,-0.00002986,0.00001188,-0.00006858,-0.00000435,-0.00000660,0.000045
 36,0.00002986,-0.00001197,-0.00003579,-0.00002731,0.00001362,0.0000288
 1,-0.00001710,0.00001654,-0.00004998,-0.00000815,-0.00003825,0.0000307
 2,-0.00002423,0.00000964,0.00003202,0.00000083,-0.00006189,-0.00002892
 ,-0.00000240,-0.00000285,-0.00004993,0.00000735,0.00002014,-0.00001533
 ,0.00003597,0.00000673,0.00001716,-0.00004783,-0.00000800,0.00001287,0
 .00003355,0.00000489,0.00002938,-0.00004722,-0.00003607,0.00003793,0.0
 0003602,-0.00003289,0.00002323,0.00004624,0.00001549,0.04685105,-0.112
 69172,-0.10665287,-0.06935228,0.15627609,0.12767053,-0.00063688,-0.000
 16638,0.00043455,0.00123010,-0.00040557,-0.00041267,0.00016224,-0.0000
 1235,0.00000228,-0.00106875,-0.00124609,0.00220113,0.00026576,0.001329
 96,0.00111897,0.00064394,-0.00212651,-0.00054670,-0.00008668,-0.000016
 52,-0.00008345,0.00001410,-0.00005746,-0.00005079,-0.00038673,0.000024
 65,-0.00007426,-0.00141583,-0.00000975,0.00034829,0.00124920,0.0040481
 9,0.00014735,-0.00102457,-0.00194553,-0.00206023,-0.00088205,0.0001101
 2,0.00126764,-0.00004676,0.00006650,0.00032788,0.00018990,-0.00002134,
 0.00018938,-0.00030603,-0.00075711,0.00220040,0.00119653,0.00123926,-0
 .00067403,-0.00003408,-0.00134994,0.00003447,0.00014093,-0.00000920,-0
 .00008004,-0.00034319,-0.00015064,-0.00054868,-0.00002793,0.00016107,0
 .00001096,0.00012072,0.00007115,-0.00011090,-0.00034250,-0.00010457,-0
 .00038419,0.00035705,0.00058028,0.00036110,0.00000222,-0.00000816,-0.0
 0009262,-0.00002188,0.00003022,-0.00000950,-0.00058920,0.00014356,-0.0
 0010011,-0.00007769,-0.00007100,-0.00024891,-0.00156535,-0.00028559,-0
 .00087386,0.00001886,-0.00001297,0.00000799,-0.00004520,0.00001652,0.0
 0000038,-0.00008890,-0.00000461,0.00002719,0.00015046,0.00023098,-0.00
 014566,-0.00003348,0.00001223,0.00002208,-0.00000688,0.00002215,-0.000
 03748,-0.00004771,0.00007366,0.00001010,-0.00003603,0.00002015,0.00002
 194,-0.00012717,-0.00005969,-0.00000687,-0.00000022,-0.00003123,0.0000
 1909,-0.00030710,0.00013548,-0.00025538,-0.00002543,-0.00003500,-0.000
 21352,-0.00012938,-0.00002655,-0.00002446,-0.00002127,0.00000332,0.000
 05690,-0.00000466,-0.00003482,-0.00000163,-0.00000194,0.00002099,0.000
 05453,0.00000164,-0.00003250,0.00001248,-0.00009532,-0.00006260,0.0000
 1304,0.00001466,0.00000695,0.00000103,-0.04359673,0.02165345,-0.111377
 63,0.00359029,0.00334042,0.02223015,0.04407490,0.00008552,0.00021495,-
 0.00030504,-0.00003303,-0.00077050,0.00038976,0.00019543,0.00001530,0.
 00000501,0.00069544,-0.00155611,-0.00229584,0.00030492,-0.00007903,0.0
 0074999,-0.00138791,0.00051054,-0.00036550,-0.00011752,-0.00007945,-0.
 00005048,0.00004941,0.00008178,-0.00006617,-0.00084304,0.00044837,0.00
 004174,0.00141112,-0.00053741,0.00028389,0.00041867,-0.00364240,-0.001
 30196,-0.00045972,0.00270045,0.00041355,0.00034338,0.00042364,0.000059
 82,-0.00004631,-0.00004952,-0.00019174,-0.00000330,-0.00013036,-0.0001
 6938,-0.00092784,0.00021222,0.00070145,0.00074685,0.00077440,-0.000242
 60,0.00015566,-0.00090041,-0.00018633,-0.00007582,0.00001068,0.0000340
 2,-0.00000181,-0.00005185,-0.00012556,0.00007936,-0.00037551,0.0000038
 9,0.00045362,0.00024314,-0.00017667,-0.00013006,-0.00059783,0.00172044
 ,0.00018423,0.00031185,-0.00006779,0.00003302,-0.00002888,-0.00002371,
 -0.00001116,-0.00000257,0.00007465,-0.00032177,0.00005728,0.00007249,-
 0.00020824,-0.00019609,0.00001367,-0.00050457,0.00002868,-0.00019149,-
 0.00002542,-0.00002227,-0.00001221,-0.00000680,0.00003354,-0.00001543,
 0.00003711,-0.00000951,0.00001256,0.00003003,0.00007215,-0.00003721,0.
 00005885,0.00001128,0.00000939,-0.00002288,-0.00005585,-0.00000745,0.0
 0003985,0.00001343,-0.00001330,-0.00003985,0.00001907,-0.00001785,0.00
 003242,-0.00001118,0.00002934,-0.00001917,0.00000900,-0.00002583,0.000
 15972,0.00003544,0.00013711,-0.00001082,-0.00000578,0.00009393,0.00004
 021,-0.00000561,0.00001943,0.00008200,-0.00011847,-0.00005742,-0.00001
 418,0.00001801,0.00000498,0.00002180,-0.00004285,0.00003128,-0.0000330
 0,0.00003506,0.00000761,-0.00017062,-0.00014464,0.00006107,0.00000518,
 -0.00009785,-0.00000638,0.03190063,-0.04014425,0.05166488,-0.00785201,
 -0.00171391,-0.04379117,-0.02429758,0.04508979,-0.00037683,-0.00018779
 ,0.00040644,0.00036879,0.00030820,-0.00036858,0.00005211,0.00002792,-0
 .00006018,0.00047105,-0.00439604,0.00766367,-0.00172291,-0.00016182,-0
 .00167044,-0.00024891,0.00016234,0.00027548,0.00001406,-0.00000552,0.0
 0011551,0.00002515,-0.00003444,0.00014652,0.00113661,-0.00054996,-0.00
 002770,0.00019646,0.00024920,-0.00004779,-0.00042678,-0.00163593,-0.00
 080425,0.00200464,-0.00193135,-0.00367599,0.00126168,0.00066477,0.0003
 3101,0.00007391,-0.00000661,0.00039986,0.00001371,0.00022907,0.0001221
 4,0.00050268,0.00007854,0.00102264,0.00197938,0.00280779,-0.00141168,-
 0.00011830,-0.00221591,0.00016394,0.00014540,-0.00004434,0.00012799,-0
 .00017593,-0.00022544,-0.00034940,-0.00015456,0.00033107,-0.00004388,0
 .00057317,-0.00039929,0.00013273,-0.00122510,0.00136989,-0.00032155,0.
 00052571,0.00016910,-0.00016502,-0.00003421,0.00006296,0.00010303,-0.0
 0001527,0.00012853,-0.00000862,-0.00087400,0.00027998,-0.00013758,-0.0
 0038424,-0.00016540,-0.00009889,-0.00131520,-0.00013859,0.00038833,0.0
 0008734,-0.00000840,0.00002455,-0.00003223,-0.00005847,0.00001124,0.00
 005354,0.00015858,0.00006823,0.00008994,0.00010041,-0.00010285,-0.0001
 3566,-0.00000314,0.00003128,0.00012166,0.00007562,0.00000846,-0.000088
 69,-0.00000988,-0.00003488,0.00006525,-0.00005135,0.00004847,-0.000244
 64,-0.00009500,-0.00013433,0.00005406,-0.00008989,0.00001774,-0.000176
 15,0.00005994,-0.00014316,-0.00013013,0.00004684,-0.00011039,-0.000183
 31,0.00003412,-0.00000468,-0.00016477,0.00013864,0.00002716,0.00001581
 ,-0.00010057,-0.00001083,0.00007118,0.00007120,-0.00005349,0.00011132,
 -0.00019822,-0.00009967,0.00025369,0.00021277,-0.00013673,0.00006422,0
 .00012425,0.00003852,-0.07965627,0.00354048,-0.38356198,-0.00974064,0.
 00817260,-0.02085092,0.08729224,-0.00689145,0.40276051\\-0.00000685,0.
 00000367,-0.00000214,0.00000976,-0.00000248,0.00000137,0.00000079,0.00
 000041,0.00000063,-0.00000987,0.00000559,-0.00000155,0.00000182,0.0000
 0213,0.00001447,0.00000718,0.00000504,-0.00000714,-0.00000216,-0.00000
 552,-0.00000169,-0.00000006,0.00000281,0.00000074,-0.00000097,-0.00000
 301,-0.00000389,-0.00000820,-0.00000947,0.00000085,0.00000531,0.000018
 71,0.00000303,-0.00000413,-0.00001677,-0.00001232,0.00000830,0.0000053
 7,0.00000799,-0.00000231,0.00000334,-0.00000193,-0.00000010,-0.0000056
 1,-0.00000021,0.00000195,-0.00000674,-0.00000123,0.00000313,0.00001333
 ,-0.00000828,-0.00000045,-0.00001639,0.00000118,0.00000175,0.00000333,
 0.00000124,-0.00000062,-0.00000041,0.00000085,-0.00000315,0.00000123,0
 .00000012,-0.00000008,-0.00000065,0.00000484,0.00000336,-0.00000267,-0
 .00000158,0.00000245,-0.00000481,0.00000169,-0.00000018,0.00000421,0.0
 0000155,-0.00000224,-0.00000161,-0.00000209,-0.00000281,0.00000925,-0.
 00000002,0.00000003,-0.00000287,0.00000116,-0.00000140,0.00000156,0.00
 000093,0.00000060,0.00000003,0.,0.00000045,-0.00000077,-0.00000028,0.0
 0000058,0.00000058,-0.00000056,0.00000008,0.00000081,-0.00000063,0.000
 00041,0.00000020,-0.00000010,-0.00000064,0.00000012,-0.00000052,0.0000
 0035,-0.00000054,-0.00000047,0.00000074,-0.00000167,-0.00000046,-0.000
 00018,-0.00000002,0.00000007,-0.00000017,-0.00000025,0.00000122,0.0000
 0014,0.00000008,0.00000070,0.00000084,-0.00000016,0.00000047,-0.000000
 06,0.00000021,0.00000008,0.00000003,0.00000094,0.00000048,0.00000056,-
 0.00000041,-0.00000052,0.00000051,0.00000090,0.00000023,0.00000110,-0.
 00000053,0.00000131,0.00000064,0.00000103,0.00000070,0.00000087,0.0000
 0029,-0.00000109,0.00000891,0.00001836,0.00000356,-0.00000167,-0.00000
 027,-0.00000020,-0.00001432,-0.00001989,-0.00000256\\\@


 We find comfort among those who agree with us -- growth among those who don't.
 -- Frank A. Clark
 Job cpu time:       0 days  0 hours  1 minutes 30.2 seconds.
 File lengths (MBytes):  RWF=   1295 Int=      0 D2E=      0 Chk=     14 Scr=      1
 Normal termination of Gaussian 09 at Thu Oct 29 08:08:58 2015.
