 Entering GApplication 60295220 resources: utime ~79227s, stime ~1546s, Rss ~878432, inblocks ~27995884, outblocks ~10799542
opt.com
 Output=/global/homes/p/parksjm/tpss/H2O.Co.1.Corrin.H2O/H2O.Co.1.Corrin.H2O.tpss.631gs.opt.log
 Initial command:
 /usr/common/usg/g09/d1/g09/l1.exe "/scratch/scratchdirs/parksjm/g09/13504198.hopque01/Gau-32218.inp" -scrdir="/scratch/scratchdirs/parksjm/g09/13504198.hopque01/"
 Entering Link 1 = /usr/common/usg/g09/d1/g09/l1.exe PID=     32219.
  
 Copyright (c) 1988,1990,1992,1993,1995,1998,2003,2009,2013,
            Gaussian, Inc.  All Rights Reserved.
  
 This is part of the Gaussian(R) 09 program.  It is based on
 the Gaussian(R) 03 system (copyright 2003, Gaussian, Inc.),
 the Gaussian(R) 98 system (copyright 1998, Gaussian, Inc.),
 the Gaussian(R) 94 system (copyright 1995, Gaussian, Inc.),
 the Gaussian 92(TM) system (copyright 1992, Gaussian, Inc.),
 the Gaussian 90(TM) system (copyright 1990, Gaussian, Inc.),
 the Gaussian 88(TM) system (copyright 1988, Gaussian, Inc.),
 the Gaussian 86(TM) system (copyright 1986, Carnegie Mellon
 University), and the Gaussian 82(TM) system (copyright 1983,
 Carnegie Mellon University). Gaussian is a federally registered
 trademark of Gaussian, Inc.
  
 This software contains proprietary and confidential information,
 including trade secrets, belonging to Gaussian, Inc.
  
 This software is provided under written license and may be
 used, copied, transmitted, or stored only in accord with that
 written license.
  
 The following legend is applicable only to US Government
 contracts under FAR:
  
                    RESTRICTED RIGHTS LEGEND
  
 Use, reproduction and disclosure by the US Government is
 subject to restrictions as set forth in subparagraphs (a)
 and (c) of the Commercial Computer Software - Restricted
 Rights clause in FAR 52.227-19.
  
 Gaussian, Inc.
 340 Quinnipiac St., Bldg. 40, Wallingford CT 06492
  
  
 ---------------------------------------------------------------
 Warning -- This program may not be used in any manner that
 competes with the business of Gaussian, Inc. or will provide
 assistance to any competitor of Gaussian, Inc.  The licensee
 of this program is prohibited from giving any competitor of
 Gaussian, Inc. access to this program.  By using this program,
 the user acknowledges that Gaussian, Inc. is engaged in the
 business of creating and licensing software in the field of
 computational chemistry and represents and warrants to the
 licensee that it is not a competitor of Gaussian, Inc. and that
 it will not use this program in any manner prohibited above.
 ---------------------------------------------------------------
  

 Cite this work as:
 Gaussian 09, Revision D.01,
 M. J. Frisch, G. W. Trucks, H. B. Schlegel, G. E. Scuseria, 
 M. A. Robb, J. R. Cheeseman, G. Scalmani, V. Barone, B. Mennucci, 
 G. A. Petersson, H. Nakatsuji, M. Caricato, X. Li, H. P. Hratchian, 
 A. F. Izmaylov, J. Bloino, G. Zheng, J. L. Sonnenberg, M. Hada, 
 M. Ehara, K. Toyota, R. Fukuda, J. Hasegawa, M. Ishida, T. Nakajima, 
 Y. Honda, O. Kitao, H. Nakai, T. Vreven, J. A. Montgomery, Jr., 
 J. E. Peralta, F. Ogliaro, M. Bearpark, J. J. Heyd, E. Brothers, 
 K. N. Kudin, V. N. Staroverov, T. Keith, R. Kobayashi, J. Normand, 
 K. Raghavachari, A. Rendell, J. C. Burant, S. S. Iyengar, J. Tomasi, 
 M. Cossi, N. Rega, J. M. Millam, M. Klene, J. E. Knox, J. B. Cross, 
 V. Bakken, C. Adamo, J. Jaramillo, R. Gomperts, R. E. Stratmann, 
 O. Yazyev, A. J. Austin, R. Cammi, C. Pomelli, J. W. Ochterski, 
 R. L. Martin, K. Morokuma, V. G. Zakrzewski, G. A. Voth, 
 P. Salvador, J. J. Dannenberg, S. Dapprich, A. D. Daniels, 
 O. Farkas, J. B. Foresman, J. V. Ortiz, J. Cioslowski, 
 and D. J. Fox, Gaussian, Inc., Wallingford CT, 2013.
 
 ******************************************
 Gaussian 09:  AS64L-G09RevD.01 24-Apr-2013
                28-Oct-2015 
 ******************************************
 %nproc=24
 Will use up to   24 processors via shared memory.
 %chk=H2O.Co.1.Corrin.H2O.chk
 %mem=7000mb
 ----------------------------------------------------
 # tpsstpss/6-31G(d) opt integral=ultrafine scf=tight
 ----------------------------------------------------
 1/14=-1,18=20,19=15,26=4,38=1/1,3;
 2/9=110,12=2,17=6,18=5,40=1/2;
 3/5=1,6=6,7=1,11=2,16=1,25=1,30=1,71=1,74=2523,75=-5/1,2,3;
 4//1;
 5/5=2,32=2,38=5/2;
 6/7=2,8=2,9=2,10=2,28=1/1;
 7//1,2,3,16;
 1/14=-1,18=20,19=15,26=4/3(2);
 2/9=110/2;
 99//99;
 2/9=110/2;
 3/5=1,6=6,7=1,11=2,16=1,25=1,30=1,71=1,74=2523,75=-5/1,2,3;
 4/5=5,16=3,69=1/1;
 5/5=2,32=2,38=5/2;
 7//1,2,3,16;
 1/14=-1,18=20,19=15,26=4/3(-5);
 2/9=110/2;
 6/7=2,8=2,9=2,10=2,19=2,28=1/1;
 99/9=1/99;
 -------------------
 H2O.Co.1.Corrin.H2O
 -------------------
 Symbolic Z-matrix:
 Charge =  0 Multiplicity = 1
 O                     0.84029   0.8858    3.00753 
 H                     0.44753   0.54958   2.16158 
 H                     1.79076   0.91323   2.77228 
 Co                   -0.03441  -0.09045   0.02118 
 N                    -1.4025   -1.38803  -0.0788 
 C                    -2.77323  -1.12052  -0.16011 
 C                    -3.55802  -2.38118  -0.47662 
 C                    -2.54259  -3.50206  -0.1882 
 C                    -1.22549  -2.74962  -0.1344 
 C                    -3.35428   0.11962  -0.00396 
 C                    -2.59245   1.28981   0.21637 
 N                    -1.2596    1.24933   0.23666 
 C                    -0.71778   2.61841   0.49449 
 C                    -1.87836   3.56383   0.13473 
 C                    -3.12491   2.69449   0.43568 
 C                     0.56927   2.65535  -0.3207 
 N                     1.14936   1.29178  -0.12062 
 C                     2.48029   1.37293  -0.06735 
 C                     2.97398   2.80086  -0.22326 
 C                     1.69713   3.61914   0.09216 
 C                     0.0151   -3.37945  -0.0846 
 C                     1.23554  -2.72029   0.01786 
 N                     1.37091  -1.3523    0.05351 
 C                     2.72822  -1.04958   0.19259 
 C                     3.5431   -2.30455   0.45289 
 C                     2.57618  -3.43149   0.04454 
 C                     3.27376   0.21674   0.12304 
 H                    -0.45495   2.67982   1.57097 
 H                     0.31206   2.75481  -1.39553 
 H                     0.03023  -4.47405  -0.12035 
 H                     4.3582    0.32532   0.22443 
 H                    -4.44322   0.19979  -0.0762 
 H                     1.63716   3.81736   1.17868 
 H                     1.65398   4.58452  -0.43889 
 H                    -2.53819  -4.30192  -0.94916 
 H                     3.82327   3.0326    0.44397 
 H                     3.7935   -2.37008   1.53041 
 H                     3.32228   2.97923  -1.26157 
 H                     2.58217  -4.29247   0.73529 
 H                    -1.84185   3.80654  -0.94353 
 H                    -1.85612   4.50769   0.70453 
 H                    -3.46203   2.82022   1.48515 
 H                    -3.98915   2.92418  -0.21215 
 H                     4.49641  -2.30811  -0.10257 
 H                    -4.48562  -2.45493   0.11606 
 H                     2.81818  -3.82418  -0.96364 
 H                    -3.8527   -2.37577  -1.54453 
 H                    -2.74109  -3.98675   0.78865 
 O                    -0.71103   0.91136  -2.95127 
 H                     0.11595   0.47412  -3.24105 
 H                    -0.75647   0.64221  -1.99772 
 
 Add virtual bond connecting atoms H51        and Co4        Dist= 4.28D+00.
 Add virtual bond connecting atoms H51        and N12        Dist= 4.48D+00.
 Add virtual bond connecting atoms Co4        and H2         Dist= 4.32D+00.
 Add virtual bond connecting atoms H28        and H2         Dist= 4.51D+00.

 GradGradGradGradGradGradGradGradGradGradGradGradGradGradGradGradGradGrad
 Berny optimization.
 Initialization pass.
                           ----------------------------
                           !    Initial Parameters    !
                           ! (Angstroms and Degrees)  !
 --------------------------                            --------------------------
 ! Name  Definition              Value          Derivative Info.                !
 --------------------------------------------------------------------------------
 ! R1    R(1,2)                  0.9914         estimate D2E/DX2                !
 ! R2    R(1,3)                  0.9795         estimate D2E/DX2                !
 ! R3    R(2,4)                  2.2854         estimate D2E/DX2                !
 ! R4    R(2,28)                 2.3877         estimate D2E/DX2                !
 ! R5    R(4,5)                  1.8882         estimate D2E/DX2                !
 ! R6    R(4,12)                 1.8283         estimate D2E/DX2                !
 ! R7    R(4,17)                 1.8254         estimate D2E/DX2                !
 ! R8    R(4,23)                 1.889          estimate D2E/DX2                !
 ! R9    R(4,51)                 2.2659         estimate D2E/DX2                !
 ! R10   R(5,6)                  1.3989         estimate D2E/DX2                !
 ! R11   R(5,9)                  1.3742         estimate D2E/DX2                !
 ! R12   R(6,7)                  1.5183         estimate D2E/DX2                !
 ! R13   R(6,10)                 1.3784         estimate D2E/DX2                !
 ! R14   R(7,8)                  1.5397         estimate D2E/DX2                !
 ! R15   R(7,45)                 1.1032         estimate D2E/DX2                !
 ! R16   R(7,47)                 1.1078         estimate D2E/DX2                !
 ! R17   R(8,9)                  1.5178         estimate D2E/DX2                !
 ! R18   R(8,35)                 1.104          estimate D2E/DX2                !
 ! R19   R(8,48)                 1.1084         estimate D2E/DX2                !
 ! R20   R(9,21)                 1.3922         estimate D2E/DX2                !
 ! R21   R(10,11)                1.4136         estimate D2E/DX2                !
 ! R22   R(10,32)                1.0943         estimate D2E/DX2                !
 ! R23   R(11,12)                1.3336         estimate D2E/DX2                !
 ! R24   R(11,15)                1.5181         estimate D2E/DX2                !
 ! R25   R(12,13)                1.4948         estimate D2E/DX2                !
 ! R26   R(12,51)                2.3694         estimate D2E/DX2                !
 ! R27   R(13,14)                1.5395         estimate D2E/DX2                !
 ! R28   R(13,16)                1.5239         estimate D2E/DX2                !
 ! R29   R(13,28)                1.1098         estimate D2E/DX2                !
 ! R30   R(14,15)                1.5493         estimate D2E/DX2                !
 ! R31   R(14,40)                1.1058         estimate D2E/DX2                !
 ! R32   R(14,41)                1.1027         estimate D2E/DX2                !
 ! R33   R(15,42)                1.1094         estimate D2E/DX2                !
 ! R34   R(15,43)                1.1042         estimate D2E/DX2                !
 ! R35   R(16,17)                1.4953         estimate D2E/DX2                !
 ! R36   R(16,20)                1.5399         estimate D2E/DX2                !
 ! R37   R(16,29)                1.1096         estimate D2E/DX2                !
 ! R38   R(17,18)                1.3345         estimate D2E/DX2                !
 ! R39   R(18,19)                1.5189         estimate D2E/DX2                !
 ! R40   R(18,27)                1.4151         estimate D2E/DX2                !
 ! R41   R(19,20)                1.549          estimate D2E/DX2                !
 ! R42   R(19,36)                1.1046         estimate D2E/DX2                !
 ! R43   R(19,38)                1.1096         estimate D2E/DX2                !
 ! R44   R(20,33)                1.1061         estimate D2E/DX2                !
 ! R45   R(20,34)                1.1026         estimate D2E/DX2                !
 ! R46   R(21,22)                1.3908         estimate D2E/DX2                !
 ! R47   R(21,30)                1.0953         estimate D2E/DX2                !
 ! R48   R(22,23)                1.3751         estimate D2E/DX2                !
 ! R49   R(22,26)                1.5178         estimate D2E/DX2                !
 ! R50   R(23,24)                1.3976         estimate D2E/DX2                !
 ! R51   R(24,25)                1.5188         estimate D2E/DX2                !
 ! R52   R(24,27)                1.3806         estimate D2E/DX2                !
 ! R53   R(25,26)                1.54           estimate D2E/DX2                !
 ! R54   R(25,37)                1.1082         estimate D2E/DX2                !
 ! R55   R(25,44)                1.1033         estimate D2E/DX2                !
 ! R56   R(26,39)                1.1038         estimate D2E/DX2                !
 ! R57   R(26,46)                1.1087         estimate D2E/DX2                !
 ! R58   R(27,31)                1.0946         estimate D2E/DX2                !
 ! R59   R(49,50)                0.9793         estimate D2E/DX2                !
 ! R60   R(49,51)                0.9918         estimate D2E/DX2                !
 ! A1    A(2,1,3)              100.8932         estimate D2E/DX2                !
 ! A2    A(1,2,28)              93.3385         estimate D2E/DX2                !
 ! A3    A(4,2,28)              86.4733         estimate D2E/DX2                !
 ! A4    A(2,4,5)              113.2549         estimate D2E/DX2                !
 ! A5    A(2,4,12)              79.9629         estimate D2E/DX2                !
 ! A6    A(2,4,17)              73.9748         estimate D2E/DX2                !
 ! A7    A(2,4,23)              90.8116         estimate D2E/DX2                !
 ! A8    A(2,4,51)             144.2049         estimate D2E/DX2                !
 ! A9    A(5,4,12)              91.3915         estimate D2E/DX2                !
 ! A10   A(5,4,23)              94.639          estimate D2E/DX2                !
 ! A11   A(5,4,51)              86.7975         estimate D2E/DX2                !
 ! A12   A(12,4,17)             83.6177         estimate D2E/DX2                !
 ! A13   A(17,4,23)             91.4158         estimate D2E/DX2                !
 ! A14   A(17,4,51)             83.8343         estimate D2E/DX2                !
 ! A15   A(23,4,51)            117.9254         estimate D2E/DX2                !
 ! A16   A(4,5,6)              125.5628         estimate D2E/DX2                !
 ! A17   A(4,5,9)              126.1366         estimate D2E/DX2                !
 ! A18   A(6,5,9)              108.2603         estimate D2E/DX2                !
 ! A19   A(5,6,7)              111.0879         estimate D2E/DX2                !
 ! A20   A(5,6,10)             125.3446         estimate D2E/DX2                !
 ! A21   A(7,6,10)             123.5556         estimate D2E/DX2                !
 ! A22   A(6,7,8)              102.9744         estimate D2E/DX2                !
 ! A23   A(6,7,45)             112.2165         estimate D2E/DX2                !
 ! A24   A(6,7,47)             109.535          estimate D2E/DX2                !
 ! A25   A(8,7,45)             113.9039         estimate D2E/DX2                !
 ! A26   A(8,7,47)             111.0724         estimate D2E/DX2                !
 ! A27   A(45,7,47)            107.1293         estimate D2E/DX2                !
 ! A28   A(7,8,9)              102.5934         estimate D2E/DX2                !
 ! A29   A(7,8,35)             113.6375         estimate D2E/DX2                !
 ! A30   A(7,8,48)             111.427          estimate D2E/DX2                !
 ! A31   A(9,8,35)             112.3419         estimate D2E/DX2                !
 ! A32   A(9,8,48)             109.9343         estimate D2E/DX2                !
 ! A33   A(35,8,48)            106.9391         estimate D2E/DX2                !
 ! A34   A(5,9,8)              112.3862         estimate D2E/DX2                !
 ! A35   A(5,9,21)             124.1664         estimate D2E/DX2                !
 ! A36   A(8,9,21)             123.3842         estimate D2E/DX2                !
 ! A37   A(6,10,11)            122.3614         estimate D2E/DX2                !
 ! A38   A(6,10,32)            118.5495         estimate D2E/DX2                !
 ! A39   A(11,10,32)           119.0746         estimate D2E/DX2                !
 ! A40   A(10,11,12)           121.0552         estimate D2E/DX2                !
 ! A41   A(10,11,15)           126.8295         estimate D2E/DX2                !
 ! A42   A(12,11,15)           112.112          estimate D2E/DX2                !
 ! A43   A(4,12,11)            133.6464         estimate D2E/DX2                !
 ! A44   A(4,12,13)            116.6542         estimate D2E/DX2                !
 ! A45   A(11,12,13)           109.6994         estimate D2E/DX2                !
 ! A46   A(11,12,51)           101.8677         estimate D2E/DX2                !
 ! A47   A(13,12,51)           108.685          estimate D2E/DX2                !
 ! A48   A(12,13,14)           104.412          estimate D2E/DX2                !
 ! A49   A(12,13,16)           103.6543         estimate D2E/DX2                !
 ! A50   A(12,13,28)           107.6876         estimate D2E/DX2                !
 ! A51   A(14,13,16)           119.787          estimate D2E/DX2                !
 ! A52   A(14,13,28)           111.7905         estimate D2E/DX2                !
 ! A53   A(16,13,28)           108.5121         estimate D2E/DX2                !
 ! A54   A(13,14,15)           102.5078         estimate D2E/DX2                !
 ! A55   A(13,14,40)           109.739          estimate D2E/DX2                !
 ! A56   A(13,14,41)           112.9337         estimate D2E/DX2                !
 ! A57   A(15,14,40)           109.8238         estimate D2E/DX2                !
 ! A58   A(15,14,41)           113.3373         estimate D2E/DX2                !
 ! A59   A(40,14,41)           108.3792         estimate D2E/DX2                !
 ! A60   A(11,15,14)           102.0597         estimate D2E/DX2                !
 ! A61   A(11,15,42)           110.3698         estimate D2E/DX2                !
 ! A62   A(11,15,43)           112.4709         estimate D2E/DX2                !
 ! A63   A(14,15,42)           111.3862         estimate D2E/DX2                !
 ! A64   A(14,15,43)           113.519          estimate D2E/DX2                !
 ! A65   A(42,15,43)           107.072          estimate D2E/DX2                !
 ! A66   A(13,16,17)           103.5302         estimate D2E/DX2                !
 ! A67   A(13,16,20)           119.3611         estimate D2E/DX2                !
 ! A68   A(13,16,29)           108.938          estimate D2E/DX2                !
 ! A69   A(17,16,20)           104.5206         estimate D2E/DX2                !
 ! A70   A(17,16,29)           107.5341         estimate D2E/DX2                !
 ! A71   A(20,16,29)           111.9233         estimate D2E/DX2                !
 ! A72   A(4,17,16)            116.7015         estimate D2E/DX2                !
 ! A73   A(4,17,18)            133.6094         estimate D2E/DX2                !
 ! A74   A(16,17,18)           109.6823         estimate D2E/DX2                !
 ! A75   A(17,18,19)           112.1632         estimate D2E/DX2                !
 ! A76   A(17,18,27)           120.9908         estimate D2E/DX2                !
 ! A77   A(19,18,27)           126.845          estimate D2E/DX2                !
 ! A78   A(18,19,20)           101.9931         estimate D2E/DX2                !
 ! A79   A(18,19,36)           112.6517         estimate D2E/DX2                !
 ! A80   A(18,19,38)           110.439          estimate D2E/DX2                !
 ! A81   A(20,19,36)           113.5741         estimate D2E/DX2                !
 ! A82   A(20,19,38)           111.3691         estimate D2E/DX2                !
 ! A83   A(36,19,38)           106.8679         estimate D2E/DX2                !
 ! A84   A(16,20,19)           102.6215         estimate D2E/DX2                !
 ! A85   A(16,20,33)           109.6221         estimate D2E/DX2                !
 ! A86   A(16,20,34)           112.9646         estimate D2E/DX2                !
 ! A87   A(19,20,33)           109.8397         estimate D2E/DX2                !
 ! A88   A(19,20,34)           113.371          estimate D2E/DX2                !
 ! A89   A(33,20,34)           108.3051         estimate D2E/DX2                !
 ! A90   A(9,21,22)            124.7606         estimate D2E/DX2                !
 ! A91   A(9,21,30)            117.5971         estimate D2E/DX2                !
 ! A92   A(22,21,30)           117.6403         estimate D2E/DX2                !
 ! A93   A(21,22,23)           124.0388         estimate D2E/DX2                !
 ! A94   A(21,22,26)           123.66           estimate D2E/DX2                !
 ! A95   A(23,22,26)           112.255          estimate D2E/DX2                !
 ! A96   A(4,23,22)            126.2182         estimate D2E/DX2                !
 ! A97   A(4,23,24)            125.4169         estimate D2E/DX2                !
 ! A98   A(22,23,24)           108.2798         estimate D2E/DX2                !
 ! A99   A(23,24,25)           111.0475         estimate D2E/DX2                !
 ! A100  A(23,24,27)           125.2696         estimate D2E/DX2                !
 ! A101  A(25,24,27)           123.6781         estimate D2E/DX2                !
 ! A102  A(24,25,26)           102.8471         estimate D2E/DX2                !
 ! A103  A(24,25,37)           109.6784         estimate D2E/DX2                !
 ! A104  A(24,25,44)           112.3311         estimate D2E/DX2                !
 ! A105  A(26,25,37)           110.8809         estimate D2E/DX2                !
 ! A106  A(26,25,44)           113.9937         estimate D2E/DX2                !
 ! A107  A(37,25,44)           107.1024         estimate D2E/DX2                !
 ! A108  A(22,26,25)           102.4939         estimate D2E/DX2                !
 ! A109  A(22,26,39)           112.412          estimate D2E/DX2                !
 ! A110  A(22,26,46)           110.0459         estimate D2E/DX2                !
 ! A111  A(25,26,39)           113.6679         estimate D2E/DX2                !
 ! A112  A(25,26,46)           111.3005         estimate D2E/DX2                !
 ! A113  A(39,26,46)           106.9535         estimate D2E/DX2                !
 ! A114  A(18,27,24)           122.3174         estimate D2E/DX2                !
 ! A115  A(18,27,31)           119.1388         estimate D2E/DX2                !
 ! A116  A(24,27,31)           118.5431         estimate D2E/DX2                !
 ! A117  A(2,28,13)            106.2645         estimate D2E/DX2                !
 ! A118  A(50,49,51)           101.6545         estimate D2E/DX2                !
 ! A119  A(4,51,49)            158.3957         estimate D2E/DX2                !
 ! A120  A(12,51,49)           147.8644         estimate D2E/DX2                !
 ! A121  L(1,2,4,28,-1)        179.8118         estimate D2E/DX2                !
 ! A122  L(5,4,17,2,-1)        187.2297         estimate D2E/DX2                !
 ! A123  L(12,4,23,2,-1)       170.7745         estimate D2E/DX2                !
 ! A124  L(1,2,4,28,-2)        167.8359         estimate D2E/DX2                !
 ! A125  L(5,4,17,2,-2)        186.641          estimate D2E/DX2                !
 ! A126  L(12,4,23,2,-2)       182.5798         estimate D2E/DX2                !
 ! D1    D(3,1,2,28)          -106.0696         estimate D2E/DX2                !
 ! D2    D(3,1,4,5)            140.3873         estimate D2E/DX2                !
 ! D3    D(3,1,4,12)          -132.329          estimate D2E/DX2                !
 ! D4    D(3,1,4,17)           -46.1697         estimate D2E/DX2                !
 ! D5    D(3,1,4,23)            45.6348         estimate D2E/DX2                !
 ! D6    D(3,1,4,51)           -94.5422         estimate D2E/DX2                !
 ! D7    D(28,2,4,5)          -112.4662         estimate D2E/DX2                !
 ! D8    D(28,2,4,12)          -25.2874         estimate D2E/DX2                !
 ! D9    D(28,2,4,17)           60.8928         estimate D2E/DX2                !
 ! D10   D(28,2,4,23)          152.1328         estimate D2E/DX2                !
 ! D11   D(28,2,4,51)            7.0052         estimate D2E/DX2                !
 ! D12   D(1,2,28,13)          164.5949         estimate D2E/DX2                !
 ! D13   D(4,2,28,13)           -3.241          estimate D2E/DX2                !
 ! D14   D(2,4,5,6)             88.3035         estimate D2E/DX2                !
 ! D15   D(2,4,5,9)            -94.2799         estimate D2E/DX2                !
 ! D16   D(12,4,5,6)             8.6334         estimate D2E/DX2                !
 ! D17   D(12,4,5,9)          -173.95           estimate D2E/DX2                !
 ! D18   D(23,4,5,6)          -178.8111         estimate D2E/DX2                !
 ! D19   D(23,4,5,9)            -1.3945         estimate D2E/DX2                !
 ! D20   D(51,4,5,6)           -61.0325         estimate D2E/DX2                !
 ! D21   D(51,4,5,9)           116.3841         estimate D2E/DX2                !
 ! D22   D(6,5,17,16)           -3.7303         estimate D2E/DX2                !
 ! D23   D(6,5,17,18)         -179.6889         estimate D2E/DX2                !
 ! D24   D(9,5,17,16)          168.4031         estimate D2E/DX2                !
 ! D25   D(9,5,17,18)           -7.5555         estimate D2E/DX2                !
 ! D26   D(2,4,12,11)         -118.2076         estimate D2E/DX2                !
 ! D27   D(2,4,12,13)           61.7696         estimate D2E/DX2                !
 ! D28   D(5,4,12,11)           -4.8307         estimate D2E/DX2                !
 ! D29   D(5,4,12,13)          175.1465         estimate D2E/DX2                !
 ! D30   D(17,4,12,11)         166.9991         estimate D2E/DX2                !
 ! D31   D(17,4,12,13)         -13.0237         estimate D2E/DX2                !
 ! D32   D(11,12,23,22)         -4.6999         estimate D2E/DX2                !
 ! D33   D(11,12,23,24)       -175.7518         estimate D2E/DX2                !
 ! D34   D(13,12,23,22)        170.0188         estimate D2E/DX2                !
 ! D35   D(13,12,23,24)         -1.0331         estimate D2E/DX2                !
 ! D36   D(2,4,17,16)          -95.0642         estimate D2E/DX2                !
 ! D37   D(2,4,17,18)           83.8696         estimate D2E/DX2                !
 ! D38   D(12,4,17,16)         -13.7106         estimate D2E/DX2                !
 ! D39   D(12,4,17,18)         165.2232         estimate D2E/DX2                !
 ! D40   D(23,4,17,16)         174.4979         estimate D2E/DX2                !
 ! D41   D(23,4,17,18)          -6.5683         estimate D2E/DX2                !
 ! D42   D(51,4,17,16)          56.5596         estimate D2E/DX2                !
 ! D43   D(51,4,17,18)        -124.5066         estimate D2E/DX2                !
 ! D44   D(2,4,23,22)          113.0046         estimate D2E/DX2                !
 ! D45   D(2,4,23,24)          -63.243          estimate D2E/DX2                !
 ! D46   D(5,4,23,22)           -0.4055         estimate D2E/DX2                !
 ! D47   D(5,4,23,24)         -176.6531         estimate D2E/DX2                !
 ! D48   D(17,4,23,22)        -173.0064         estimate D2E/DX2                !
 ! D49   D(17,4,23,24)          10.746          estimate D2E/DX2                !
 ! D50   D(51,4,23,22)         -89.2351         estimate D2E/DX2                !
 ! D51   D(51,4,23,24)          94.5174         estimate D2E/DX2                !
 ! D52   D(2,4,51,49)          106.3423         estimate D2E/DX2                !
 ! D53   D(5,4,51,49)         -126.8952         estimate D2E/DX2                !
 ! D54   D(17,4,51,49)          54.9912         estimate D2E/DX2                !
 ! D55   D(23,4,51,49)         -33.3393         estimate D2E/DX2                !
 ! D56   D(4,5,6,7)            169.7353         estimate D2E/DX2                !
 ! D57   D(4,5,6,10)            -9.0422         estimate D2E/DX2                !
 ! D58   D(9,5,6,7)             -8.0679         estimate D2E/DX2                !
 ! D59   D(9,5,6,10)           173.1546         estimate D2E/DX2                !
 ! D60   D(4,5,9,8)            179.1767         estimate D2E/DX2                !
 ! D61   D(4,5,9,21)             1.991          estimate D2E/DX2                !
 ! D62   D(6,5,9,8)             -3.0361         estimate D2E/DX2                !
 ! D63   D(6,5,9,21)           179.7782         estimate D2E/DX2                !
 ! D64   D(5,6,7,8)             15.2805         estimate D2E/DX2                !
 ! D65   D(5,6,7,45)           138.1867         estimate D2E/DX2                !
 ! D66   D(5,6,7,47)          -102.9649         estimate D2E/DX2                !
 ! D67   D(10,6,7,8)          -165.9161         estimate D2E/DX2                !
 ! D68   D(10,6,7,45)          -43.0099         estimate D2E/DX2                !
 ! D69   D(10,6,7,47)           75.8385         estimate D2E/DX2                !
 ! D70   D(5,6,10,11)            2.2609         estimate D2E/DX2                !
 ! D71   D(5,6,10,32)         -179.1372         estimate D2E/DX2                !
 ! D72   D(7,6,10,11)         -176.3703         estimate D2E/DX2                !
 ! D73   D(7,6,10,32)            2.2316         estimate D2E/DX2                !
 ! D74   D(6,7,8,9)            -15.4939         estimate D2E/DX2                !
 ! D75   D(6,7,8,35)          -137.0245         estimate D2E/DX2                !
 ! D76   D(6,7,8,48)           102.0842         estimate D2E/DX2                !
 ! D77   D(45,7,8,9)          -137.2655         estimate D2E/DX2                !
 ! D78   D(45,7,8,35)          101.2039         estimate D2E/DX2                !
 ! D79   D(45,7,8,48)          -19.6873         estimate D2E/DX2                !
 ! D80   D(47,7,8,9)           101.6682         estimate D2E/DX2                !
 ! D81   D(47,7,8,35)          -19.8624         estimate D2E/DX2                !
 ! D82   D(47,7,8,48)         -140.7536         estimate D2E/DX2                !
 ! D83   D(7,8,9,5)             12.2824         estimate D2E/DX2                !
 ! D84   D(7,8,9,21)          -170.5063         estimate D2E/DX2                !
 ! D85   D(35,8,9,5)           134.6936         estimate D2E/DX2                !
 ! D86   D(35,8,9,21)          -48.095          estimate D2E/DX2                !
 ! D87   D(48,8,9,5)          -106.3508         estimate D2E/DX2                !
 ! D88   D(48,8,9,21)           70.8605         estimate D2E/DX2                !
 ! D89   D(5,9,21,22)           -0.4791         estimate D2E/DX2                !
 ! D90   D(5,9,21,30)          178.9859         estimate D2E/DX2                !
 ! D91   D(8,9,21,22)         -177.3624         estimate D2E/DX2                !
 ! D92   D(8,9,21,30)            2.1026         estimate D2E/DX2                !
 ! D93   D(6,10,11,12)           2.3678         estimate D2E/DX2                !
 ! D94   D(6,10,11,15)        -178.3503         estimate D2E/DX2                !
 ! D95   D(32,10,11,12)       -176.2271         estimate D2E/DX2                !
 ! D96   D(32,10,11,15)          3.0548         estimate D2E/DX2                !
 ! D97   D(10,11,12,4)           0.2682         estimate D2E/DX2                !
 ! D98   D(10,11,12,13)       -179.7101         estimate D2E/DX2                !
 ! D99   D(10,11,12,51)         65.2687         estimate D2E/DX2                !
 ! D100  D(15,11,12,4)        -179.1114         estimate D2E/DX2                !
 ! D101  D(15,11,12,13)          0.9103         estimate D2E/DX2                !
 ! D102  D(15,11,12,51)       -114.1109         estimate D2E/DX2                !
 ! D103  D(10,11,15,14)       -161.5717         estimate D2E/DX2                !
 ! D104  D(10,11,15,42)         79.9333         estimate D2E/DX2                !
 ! D105  D(10,11,15,43)        -39.5692         estimate D2E/DX2                !
 ! D106  D(12,11,15,14)         17.7643         estimate D2E/DX2                !
 ! D107  D(12,11,15,42)       -100.7307         estimate D2E/DX2                !
 ! D108  D(12,11,15,43)        139.7668         estimate D2E/DX2                !
 ! D109  D(4,12,13,14)         160.5098         estimate D2E/DX2                !
 ! D110  D(4,12,13,16)          34.334          estimate D2E/DX2                !
 ! D111  D(4,12,13,28)         -80.5272         estimate D2E/DX2                !
 ! D112  D(11,12,13,14)        -19.5077         estimate D2E/DX2                !
 ! D113  D(11,12,13,16)       -145.6835         estimate D2E/DX2                !
 ! D114  D(11,12,13,28)         99.4552         estimate D2E/DX2                !
 ! D115  D(51,12,13,14)         91.0821         estimate D2E/DX2                !
 ! D116  D(51,12,13,16)        -35.0936         estimate D2E/DX2                !
 ! D117  D(51,12,13,28)       -149.9549         estimate D2E/DX2                !
 ! D118  D(11,12,51,49)         73.1119         estimate D2E/DX2                !
 ! D119  D(13,12,51,49)        -42.6531         estimate D2E/DX2                !
 ! D120  D(12,13,14,15)         29.1259         estimate D2E/DX2                !
 ! D121  D(12,13,14,40)        -87.5318         estimate D2E/DX2                !
 ! D122  D(12,13,14,41)        151.4333         estimate D2E/DX2                !
 ! D123  D(16,13,14,15)        144.4624         estimate D2E/DX2                !
 ! D124  D(16,13,14,40)         27.8047         estimate D2E/DX2                !
 ! D125  D(16,13,14,41)        -93.2302         estimate D2E/DX2                !
 ! D126  D(28,13,14,15)        -87.0146         estimate D2E/DX2                !
 ! D127  D(28,13,14,40)        156.3277         estimate D2E/DX2                !
 ! D128  D(28,13,14,41)         35.2928         estimate D2E/DX2                !
 ! D129  D(12,13,16,17)        -39.7146         estimate D2E/DX2                !
 ! D130  D(12,13,16,20)       -155.2628         estimate D2E/DX2                !
 ! D131  D(12,13,16,29)         74.501          estimate D2E/DX2                !
 ! D132  D(14,13,16,17)       -155.4476         estimate D2E/DX2                !
 ! D133  D(14,13,16,20)         89.0043         estimate D2E/DX2                !
 ! D134  D(14,13,16,29)        -41.2319         estimate D2E/DX2                !
 ! D135  D(28,13,16,17)         74.5571         estimate D2E/DX2                !
 ! D136  D(28,13,16,20)        -40.991          estimate D2E/DX2                !
 ! D137  D(28,13,16,29)       -171.2272         estimate D2E/DX2                !
 ! D138  D(12,13,28,2)          37.8121         estimate D2E/DX2                !
 ! D139  D(14,13,28,2)         151.9438         estimate D2E/DX2                !
 ! D140  D(16,13,28,2)         -73.7848         estimate D2E/DX2                !
 ! D141  D(13,14,15,11)        -27.8561         estimate D2E/DX2                !
 ! D142  D(13,14,15,42)         89.9138         estimate D2E/DX2                !
 ! D143  D(13,14,15,43)       -149.1367         estimate D2E/DX2                !
 ! D144  D(40,14,15,11)         88.7407         estimate D2E/DX2                !
 ! D145  D(40,14,15,42)       -153.4893         estimate D2E/DX2                !
 ! D146  D(40,14,15,43)        -32.5399         estimate D2E/DX2                !
 ! D147  D(41,14,15,11)       -149.8894         estimate D2E/DX2                !
 ! D148  D(41,14,15,42)        -32.1194         estimate D2E/DX2                !
 ! D149  D(41,14,15,43)         88.83           estimate D2E/DX2                !
 ! D150  D(13,16,17,4)          34.8559         estimate D2E/DX2                !
 ! D151  D(13,16,17,18)       -144.3242         estimate D2E/DX2                !
 ! D152  D(20,16,17,4)         160.5371         estimate D2E/DX2                !
 ! D153  D(20,16,17,18)        -18.6431         estimate D2E/DX2                !
 ! D154  D(29,16,17,4)         -80.3646         estimate D2E/DX2                !
 ! D155  D(29,16,17,18)        100.4553         estimate D2E/DX2                !
 ! D156  D(13,16,20,19)        143.6683         estimate D2E/DX2                !
 ! D157  D(13,16,20,33)         26.9843         estimate D2E/DX2                !
 ! D158  D(13,16,20,34)        -93.8939         estimate D2E/DX2                !
 ! D159  D(17,16,20,19)         28.6439         estimate D2E/DX2                !
 ! D160  D(17,16,20,33)        -88.0401         estimate D2E/DX2                !
 ! D161  D(17,16,20,34)        151.0817         estimate D2E/DX2                !
 ! D162  D(29,16,20,19)        -87.4417         estimate D2E/DX2                !
 ! D163  D(29,16,20,33)        155.8743         estimate D2E/DX2                !
 ! D164  D(29,16,20,34)         34.996          estimate D2E/DX2                !
 ! D165  D(4,17,18,19)        -178.946          estimate D2E/DX2                !
 ! D166  D(4,17,18,27)           0.7148         estimate D2E/DX2                !
 ! D167  D(16,17,18,19)          0.0425         estimate D2E/DX2                !
 ! D168  D(16,17,18,27)        179.7032         estimate D2E/DX2                !
 ! D169  D(17,18,19,20)         18.265          estimate D2E/DX2                !
 ! D170  D(17,18,19,36)        140.3843         estimate D2E/DX2                !
 ! D171  D(17,18,19,38)       -100.205          estimate D2E/DX2                !
 ! D172  D(27,18,19,20)       -161.3716         estimate D2E/DX2                !
 ! D173  D(27,18,19,36)        -39.2523         estimate D2E/DX2                !
 ! D174  D(27,18,19,38)         80.1584         estimate D2E/DX2                !
 ! D175  D(17,18,27,24)          3.4551         estimate D2E/DX2                !
 ! D176  D(17,18,27,31)       -176.2238         estimate D2E/DX2                !
 ! D177  D(19,18,27,24)       -176.9375         estimate D2E/DX2                !
 ! D178  D(19,18,27,31)          3.3835         estimate D2E/DX2                !
 ! D179  D(18,19,20,16)        -27.8051         estimate D2E/DX2                !
 ! D180  D(18,19,20,33)         88.7231         estimate D2E/DX2                !
 ! D181  D(18,19,20,34)       -149.9678         estimate D2E/DX2                !
 ! D182  D(36,19,20,16)       -149.2895         estimate D2E/DX2                !
 ! D183  D(36,19,20,33)        -32.7613         estimate D2E/DX2                !
 ! D184  D(36,19,20,34)         88.5478         estimate D2E/DX2                !
 ! D185  D(38,19,20,16)         90.0006         estimate D2E/DX2                !
 ! D186  D(38,19,20,33)       -153.4711         estimate D2E/DX2                !
 ! D187  D(38,19,20,34)        -32.162          estimate D2E/DX2                !
 ! D188  D(9,21,22,23)          -1.4969         estimate D2E/DX2                !
 ! D189  D(9,21,22,26)        -178.8304         estimate D2E/DX2                !
 ! D190  D(30,21,22,23)        179.0383         estimate D2E/DX2                !
 ! D191  D(30,21,22,26)          1.7048         estimate D2E/DX2                !
 ! D192  D(21,22,23,4)           1.7901         estimate D2E/DX2                !
 ! D193  D(21,22,23,24)        178.5701         estimate D2E/DX2                !
 ! D194  D(26,22,23,4)         179.3922         estimate D2E/DX2                !
 ! D195  D(26,22,23,24)         -3.8278         estimate D2E/DX2                !
 ! D196  D(21,22,26,25)       -168.8755         estimate D2E/DX2                !
 ! D197  D(21,22,26,39)        -46.4535         estimate D2E/DX2                !
 ! D198  D(21,22,26,46)         72.6404         estimate D2E/DX2                !
 ! D199  D(23,22,26,25)         13.5119         estimate D2E/DX2                !
 ! D200  D(23,22,26,39)        135.9339         estimate D2E/DX2                !
 ! D201  D(23,22,26,46)       -104.9722         estimate D2E/DX2                !
 ! D202  D(4,23,24,25)         168.7341         estimate D2E/DX2                !
 ! D203  D(4,23,24,27)         -10.4951         estimate D2E/DX2                !
 ! D204  D(22,23,24,25)         -8.0783         estimate D2E/DX2                !
 ! D205  D(22,23,24,27)        172.6925         estimate D2E/DX2                !
 ! D206  D(23,24,25,26)         16.0382         estimate D2E/DX2                !
 ! D207  D(23,24,25,37)       -101.984          estimate D2E/DX2                !
 ! D208  D(23,24,25,44)        139.0335         estimate D2E/DX2                !
 ! D209  D(27,24,25,26)       -164.7181         estimate D2E/DX2                !
 ! D210  D(27,24,25,37)         77.2598         estimate D2E/DX2                !
 ! D211  D(27,24,25,44)        -41.7227         estimate D2E/DX2                !
 ! D212  D(23,24,27,18)          1.7498         estimate D2E/DX2                !
 ! D213  D(23,24,27,31)       -178.5694         estimate D2E/DX2                !
 ! D214  D(25,24,27,18)       -177.3857         estimate D2E/DX2                !
 ! D215  D(25,24,27,31)          2.295          estimate D2E/DX2                !
 ! D216  D(24,25,26,22)        -16.6058         estimate D2E/DX2                !
 ! D217  D(24,25,26,39)       -138.1727         estimate D2E/DX2                !
 ! D218  D(24,25,26,46)        100.9895         estimate D2E/DX2                !
 ! D219  D(37,25,26,22)        100.5664         estimate D2E/DX2                !
 ! D220  D(37,25,26,39)        -21.0006         estimate D2E/DX2                !
 ! D221  D(37,25,26,46)       -141.8384         estimate D2E/DX2                !
 ! D222  D(44,25,26,22)       -138.4818         estimate D2E/DX2                !
 ! D223  D(44,25,26,39)         99.9512         estimate D2E/DX2                !
 ! D224  D(44,25,26,46)        -20.8865         estimate D2E/DX2                !
 ! D225  D(50,49,51,4)          20.5607         estimate D2E/DX2                !
 ! D226  D(50,49,51,12)        140.4497         estimate D2E/DX2                !
 --------------------------------------------------------------------------------
 Trust Radius=3.00D-01 FncErr=1.00D-07 GrdErr=1.00D-06
 Number of steps in this run=    306 maximum allowed number of steps=    306.
 GradGradGradGradGradGradGradGradGradGradGradGradGradGradGradGradGradGrad

 Stoichiometry    C19H25CoN4O2
 Framework group  C1[X(C19H25CoN4O2)]
 Deg. of freedom   147
 Full point group                 C1      NOp   1
 Largest Abelian subgroup         C1      NOp   1
 Largest concise Abelian subgroup C1      NOp   1
                         Standard orientation:                         
 ---------------------------------------------------------------------
 Center     Atomic      Atomic             Coordinates (Angstroms)
 Number     Number       Type             X           Y           Z
 ---------------------------------------------------------------------
      1          8           0        1.008390    1.027504   -2.878376
      2          1           0        0.619374    0.593764   -2.076217
      3          1           0        1.083097    1.954181   -2.569866
      4         27           0       -0.124682   -0.007197   -0.000541
      5          7           0       -1.503140   -1.296804   -0.047189
      6          6           0       -1.319713   -2.683578   -0.063326
      7          6           0       -2.634882   -3.411127    0.151897
      8          6           0       -3.683053   -2.310122   -0.092622
      9          6           0       -2.853101   -1.041310   -0.021062
     10          6           0       -0.111005   -3.326217   -0.224608
     11          6           0        1.109092   -2.623191   -0.348607
     12          7           0        1.147725   -1.292611   -0.267428
     13          6           0        2.554675   -0.817940   -0.439477
     14          6           0        3.416701   -2.058005   -0.140573
     15          6           0        2.487078   -3.222823   -0.563899
     16          6           0        2.637701    0.399660    0.473195
     17          7           0        1.318667    1.075624    0.275518
     18          6           0        1.479716    2.399315    0.327520
     19          6           0        2.927614    2.791446    0.565928
     20          6           0        3.680338    1.494084    0.179023
     21          6           0       -3.406772    0.235794    0.005027
     22          6           0       -2.673800    1.417763    0.017717
     23          7           0       -1.299830    1.471296    0.035732
     24          6           0       -0.913089    2.814096    0.011230
     25          6           0       -2.107821    3.721605   -0.224943
     26          6           0       -3.303613    2.797702    0.071990
     27          6           0        0.379744    3.274221    0.162473
     28          1           0        2.670225   -0.479376   -1.490042
     29          1           0        2.683025    0.056949    1.527613
     30          1           0       -4.499172    0.315275    0.007317
     31          1           0        0.555418    4.354509    0.148395
     32          1           0       -0.097595   -4.420378   -0.233977
     33          1           0        3.913776    1.503734   -0.902091
     34          1           0        4.621717    1.352120    0.735332
     35          1           0       -4.508216   -2.313773    0.640821
     36          1           0        3.232769    3.672569   -0.026264
     37          1           0       -2.119599    4.055665   -1.281502
     38          1           0        3.088545    3.049298    1.633085
     39          1           0       -4.137258    2.908251   -0.643036
     40          1           0        3.622056   -2.117410    0.944409
     41          1           0        4.380181   -2.050999   -0.676930
     42          1           0        2.630581   -3.487352   -1.631739
     43          1           0        2.642076   -4.145661    0.022340
     44          1           0       -2.075425    4.628998    0.401915
     45          1           0       -2.741551   -4.285391   -0.512504
     46          1           0       -3.717537    2.987029    1.082932
     47          1           0       -2.685339   -3.784847    1.193570
     48          1           0       -4.142992   -2.404716   -1.096653
     49          8           0        0.727716   -0.964988    2.941050
     50          1           0        0.329632   -0.136827    3.279750
     51          1           0        0.490960   -0.922195    1.978826
 ---------------------------------------------------------------------
 Rotational constants (GHZ):      0.2438035      0.2337703      0.1418777
 Standard basis: 6-31G(d) (6D, 7F)
 There are   464 symmetry adapted cartesian basis functions of A   symmetry.
 There are   461 symmetry adapted basis functions of A   symmetry.
   461 basis functions,   904 primitive gaussians,   464 cartesian basis functions
   105 alpha electrons      105 beta electrons
       nuclear repulsion energy      3156.6218454086 Hartrees.
 NAtoms=   51 NActive=   51 NUniq=   51 SFac= 1.00D+00 NAtFMM=   60 NAOKFM=F Big=F
 Integral buffers will be    131072 words long.
 Raffenetti 2 integral format.
 Two-electron integral symmetry is turned on.
 One-electron integrals computed using PRISM.
 NBasis=   461 RedAO= T EigKep=  7.48D-04  NBF=   461
 NBsUse=   461 1.00D-06 EigRej= -1.00D+00 NBFU=   461
 ExpMin= 4.30D-02 ExpMax= 6.61D+04 ExpMxC= 9.93D+03 IAcc=3 IRadAn=         5 AccDes= 0.00D+00
 Harris functional with IExCor= 1009 and IRadAn=       5 diagonalized for initial guess.
 HarFok:  IExCor= 1009 AccDes= 0.00D+00 IRadAn=         5 IDoV= 1 UseB2=F ITyADJ=14
 ICtDFT=  3500011 ScaDFX=  1.000000  1.000000  1.000000  1.000000
 FoFCou: FMM=F IPFlag=           0 FMFlag=      100000 FMFlg1=           0
         NFxFlg=           0 DoJE=T BraDBF=F KetDBF=T FulRan=T
         wScrn=  0.000000 ICntrl=     500 IOpCl=  0 I1Cent=   200000004 NGrid=           0
         NMat0=    1 NMatS0=      1 NMatT0=    0 NMatD0=    1 NMtDS0=    0 NMtDT0=    0
 Petite list used in FoFCou.
 Requested convergence on RMS density matrix=1.00D-08 within 128 cycles.
 Requested convergence on MAX density matrix=1.00D-06.
 Requested convergence on             energy=1.00D-06.
 No special actions if energy rises.
 EnCoef did   100 forward-backward iterations
 EnCoef did     2 forward-backward iterations
 EnCoef did     2 forward-backward iterations
 EnCoef did     7 forward-backward iterations
 SCF Done:  E(RTPSS-TPSS) =  -2491.51131564     A.U. after   19 cycles
            NFock= 19  Conv=0.55D-08     -V/T= 2.0048

 **********************************************************************

            Population analysis using the SCF density.

 **********************************************************************

 Orbital symmetries:
       Occupied  (A) (A) (A) (A) (A) (A) (A) (A) (A) (A) (A) (A)
                 (A) (A) (A) (A) (A) (A) (A) (A) (A) (A) (A) (A)
                 (A) (A) (A) (A) (A) (A) (A) (A) (A) (A) (A) (A)
                 (A) (A) (A) (A) (A) (A) (A) (A) (A) (A) (A) (A)
                 (A) (A) (A) (A) (A) (A) (A) (A) (A) (A) (A) (A)
                 (A) (A) (A) (A) (A) (A) (A) (A) (A) (A) (A) (A)
                 (A) (A) (A) (A) (A) (A) (A) (A) (A) (A) (A) (A)
                 (A) (A) (A) (A) (A) (A) (A) (A) (A) (A) (A) (A)
                 (A) (A) (A) (A) (A) (A) (A) (A) (A)
       Virtual   (A) (A) (A) (A) (A) (A) (A) (A) (A) (A) (A) (A)
                 (A) (A) (A) (A) (A) (A) (A) (A) (A) (A) (A) (A)
                 (A) (A) (A) (A) (A) (A) (A) (A) (A) (A) (A) (A)
                 (A) (A) (A) (A) (A) (A) (A) (A) (A) (A) (A) (A)
                 (A) (A) (A) (A) (A) (A) (A) (A) (A) (A) (A) (A)
                 (A) (A) (A) (A) (A) (A) (A) (A) (A) (A) (A) (A)
                 (A) (A) (A) (A) (A) (A) (A) (A) (A) (A) (A) (A)
                 (A) (A) (A) (A) (A) (A) (A) (A) (A) (A) (A) (A)
                 (A) (A) (A) (A) (A) (A) (A) (A) (A) (A) (A) (A)
                 (A) (A) (A) (A) (A) (A) (A) (A) (A) (A) (A) (A)
                 (A) (A) (A) (A) (A) (A) (A) (A) (A) (A) (A) (A)
                 (A) (A) (A) (A) (A) (A) (A) (A) (A) (A) (A) (A)
                 (A) (A) (A) (A) (A) (A) (A) (A) (A) (A) (A) (A)
                 (A) (A) (A) (A) (A) (A) (A) (A) (A) (A) (A) (A)
                 (A) (A) (A) (A) (A) (A) (A) (A) (A) (A) (A) (A)
                 (A) (A) (A) (A) (A) (A) (A) (A) (A) (A) (A) (A)
                 (A) (A) (A) (A) (A) (A) (A) (A) (A) (A) (A) (A)
                 (A) (A) (A) (A) (A) (A) (A) (A) (A) (A) (A) (A)
                 (A) (A) (A) (A) (A) (A) (A) (A) (A) (A) (A) (A)
                 (A) (A) (A) (A) (A) (A) (A) (A) (A) (A) (A) (A)
                 (A) (A) (A) (A) (A) (A) (A) (A) (A) (A) (A) (A)
                 (A) (A) (A) (A) (A) (A) (A) (A) (A) (A) (A) (A)
                 (A) (A) (A) (A) (A) (A) (A) (A) (A) (A) (A) (A)
                 (A) (A) (A) (A) (A) (A) (A) (A) (A) (A) (A) (A)
                 (A) (A) (A) (A) (A) (A) (A) (A) (A) (A) (A) (A)
                 (A) (A) (A) (A) (A) (A) (A) (A) (A) (A) (A) (A)
                 (A) (A) (A) (A) (A) (A) (A) (A) (A) (A) (A) (A)
                 (A) (A) (A) (A) (A) (A) (A) (A) (A) (A) (A) (A)
                 (A) (A) (A) (A) (A) (A) (A) (A) (A) (A) (A) (A)
                 (A) (A) (A) (A) (A) (A) (A) (A)
 The electronic state is 1-A.
 Alpha  occ. eigenvalues -- -276.63540 -32.44869 -28.11680 -28.11510 -28.09747
 Alpha  occ. eigenvalues --  -18.87190 -18.86885 -14.13669 -14.13573 -14.12834
 Alpha  occ. eigenvalues --  -14.12729 -10.03294 -10.03019 -10.02970 -10.02741
 Alpha  occ. eigenvalues --  -10.02680 -10.02636 -10.02600 -10.02596 -10.01245
 Alpha  occ. eigenvalues --  -10.01098 -10.00976 -10.00846 -10.00789 -10.00777
 Alpha  occ. eigenvalues --  -10.00689 -10.00431  -9.99191  -9.98771  -9.98600
 Alpha  occ. eigenvalues --   -3.54791  -2.26174  -2.25949  -2.22555  -0.89868
 Alpha  occ. eigenvalues --   -0.89629  -0.88757  -0.87499  -0.87261  -0.85464
 Alpha  occ. eigenvalues --   -0.74380  -0.71540  -0.71333  -0.70904  -0.70828
 Alpha  occ. eigenvalues --   -0.70728  -0.69737  -0.65004  -0.64286  -0.59103
 Alpha  occ. eigenvalues --   -0.58178  -0.56118  -0.53339  -0.53270  -0.52387
 Alpha  occ. eigenvalues --   -0.50059  -0.49577  -0.48098  -0.45859  -0.45312
 Alpha  occ. eigenvalues --   -0.45009  -0.44067  -0.43420  -0.43325  -0.42889
 Alpha  occ. eigenvalues --   -0.42814  -0.42373  -0.41246  -0.40437  -0.38159
 Alpha  occ. eigenvalues --   -0.37170  -0.36398  -0.35571  -0.35087  -0.34758
 Alpha  occ. eigenvalues --   -0.34216  -0.34146  -0.34022  -0.33878  -0.33368
 Alpha  occ. eigenvalues --   -0.33211  -0.32808  -0.32602  -0.32412  -0.31267
 Alpha  occ. eigenvalues --   -0.30867  -0.30467  -0.30287  -0.30223  -0.30021
 Alpha  occ. eigenvalues --   -0.29081  -0.28781  -0.27399  -0.27155  -0.26752
 Alpha  occ. eigenvalues --   -0.25650  -0.22691  -0.21465  -0.21182  -0.19841
 Alpha  occ. eigenvalues --   -0.17699  -0.16023  -0.13584  -0.13257  -0.12836
 Alpha virt. eigenvalues --   -0.07258  -0.04264  -0.02416  -0.01742   0.01575
 Alpha virt. eigenvalues --    0.04080   0.05026   0.05437   0.05839   0.06357
 Alpha virt. eigenvalues --    0.06837   0.08297   0.08999   0.09628   0.09916
 Alpha virt. eigenvalues --    0.11006   0.11286   0.11786   0.12127   0.12654
 Alpha virt. eigenvalues --    0.13052   0.13178   0.13948   0.14237   0.14770
 Alpha virt. eigenvalues --    0.14970   0.15363   0.15856   0.16309   0.16640
 Alpha virt. eigenvalues --    0.16820   0.17133   0.17348   0.17946   0.18489
 Alpha virt. eigenvalues --    0.19248   0.19449   0.20094   0.20239   0.20462
 Alpha virt. eigenvalues --    0.20678   0.20765   0.21334   0.22477   0.23647
 Alpha virt. eigenvalues --    0.23862   0.25056   0.25690   0.27266   0.27908
 Alpha virt. eigenvalues --    0.29440   0.29649   0.30597   0.31983   0.32824
 Alpha virt. eigenvalues --    0.34746   0.35357   0.36837   0.39235   0.39712
 Alpha virt. eigenvalues --    0.40792   0.42042   0.42733   0.44591   0.44715
 Alpha virt. eigenvalues --    0.49492   0.50173   0.50271   0.51542   0.51601
 Alpha virt. eigenvalues --    0.52013   0.52606   0.53224   0.53672   0.53825
 Alpha virt. eigenvalues --    0.54010   0.54745   0.55621   0.55662   0.56225
 Alpha virt. eigenvalues --    0.56505   0.57430   0.58107   0.58967   0.59452
 Alpha virt. eigenvalues --    0.59756   0.60412   0.61595   0.61629   0.62063
 Alpha virt. eigenvalues --    0.62453   0.63867   0.64421   0.65247   0.66421
 Alpha virt. eigenvalues --    0.67341   0.68006   0.68866   0.70280   0.71337
 Alpha virt. eigenvalues --    0.71534   0.72087   0.72842   0.73016   0.74243
 Alpha virt. eigenvalues --    0.74906   0.75427   0.77045   0.77810   0.78168
 Alpha virt. eigenvalues --    0.78730   0.79644   0.80803   0.81343   0.81498
 Alpha virt. eigenvalues --    0.81917   0.82104   0.82346   0.82467   0.83136
 Alpha virt. eigenvalues --    0.83208   0.83493   0.83719   0.84156   0.84336
 Alpha virt. eigenvalues --    0.84725   0.85467   0.86991   0.87520   0.88242
 Alpha virt. eigenvalues --    0.88495   0.89242   0.89451   0.89728   0.90490
 Alpha virt. eigenvalues --    0.91488   0.92110   0.92228   0.92462   0.92904
 Alpha virt. eigenvalues --    0.93416   0.94432   0.94896   0.96191   0.97053
 Alpha virt. eigenvalues --    0.97206   0.97857   0.99890   1.01108   1.02655
 Alpha virt. eigenvalues --    1.03375   1.04735   1.05472   1.06234   1.07303
 Alpha virt. eigenvalues --    1.07307   1.08947   1.09545   1.11365   1.11777
 Alpha virt. eigenvalues --    1.13808   1.14733   1.15743   1.16932   1.18561
 Alpha virt. eigenvalues --    1.19074   1.19574   1.20619   1.22349   1.23953
 Alpha virt. eigenvalues --    1.25104   1.26256   1.27209   1.29477   1.30407
 Alpha virt. eigenvalues --    1.31269   1.34708   1.35544   1.36753   1.37232
 Alpha virt. eigenvalues --    1.37788   1.39544   1.40223   1.41245   1.42984
 Alpha virt. eigenvalues --    1.43928   1.46030   1.47258   1.48743   1.49292
 Alpha virt. eigenvalues --    1.50502   1.53667   1.55863   1.56038   1.57578
 Alpha virt. eigenvalues --    1.59448   1.61858   1.62144   1.64101   1.66119
 Alpha virt. eigenvalues --    1.66682   1.69150   1.70066   1.71374   1.71576
 Alpha virt. eigenvalues --    1.72611   1.73475   1.73853   1.74169   1.75085
 Alpha virt. eigenvalues --    1.75243   1.75564   1.76277   1.76677   1.76979
 Alpha virt. eigenvalues --    1.77678   1.77867   1.78130   1.78372   1.79217
 Alpha virt. eigenvalues --    1.80042   1.80287   1.80562   1.81909   1.82201
 Alpha virt. eigenvalues --    1.83198   1.84045   1.84332   1.87483   1.88153
 Alpha virt. eigenvalues --    1.89171   1.90556   1.90603   1.92129   1.92511
 Alpha virt. eigenvalues --    1.93916   1.94670   1.95743   1.95955   1.96328
 Alpha virt. eigenvalues --    1.96875   1.98776   1.99266   2.00077   2.00588
 Alpha virt. eigenvalues --    2.02891   2.05147   2.05592   2.06508   2.06762
 Alpha virt. eigenvalues --    2.07233   2.08565   2.08864   2.11836   2.12270
 Alpha virt. eigenvalues --    2.12735   2.15373   2.16954   2.17036   2.18626
 Alpha virt. eigenvalues --    2.19517   2.20154   2.21415   2.22562   2.22833
 Alpha virt. eigenvalues --    2.22982   2.23940   2.24644   2.25533   2.27101
 Alpha virt. eigenvalues --    2.28449   2.28697   2.29374   2.30112   2.30925
 Alpha virt. eigenvalues --    2.32322   2.33529   2.34205   2.35215   2.37589
 Alpha virt. eigenvalues --    2.40222   2.40954   2.41715   2.43557   2.45597
 Alpha virt. eigenvalues --    2.45903   2.46768   2.47591   2.48131   2.49093
 Alpha virt. eigenvalues --    2.49943   2.50305   2.50867   2.51600   2.54767
 Alpha virt. eigenvalues --    2.56080   2.57652   2.57919   2.58873   2.59467
 Alpha virt. eigenvalues --    2.61358   2.62950   2.63360   2.64779   2.66090
 Alpha virt. eigenvalues --    2.66917   2.71083   2.71800   2.73179   2.73887
 Alpha virt. eigenvalues --    2.75409   2.76467   2.79081   2.80539   2.81348
 Alpha virt. eigenvalues --    2.82148   2.83805   2.84938   2.86409   2.88675
 Alpha virt. eigenvalues --    2.95258   2.95915   3.05299   3.07685   3.10707
 Alpha virt. eigenvalues --    3.19214   3.22237   3.34087   3.37047   3.41266
 Alpha virt. eigenvalues --    3.76715   3.79872   4.09965   4.11159   4.13312
 Alpha virt. eigenvalues --    4.14563   4.15423   4.16845   4.17231   4.17490
 Alpha virt. eigenvalues --    4.22992   4.24761   4.26452   4.29015   4.32488
 Alpha virt. eigenvalues --    4.32561   4.34482   4.45737   4.53424   4.54740
 Alpha virt. eigenvalues --    4.59764   4.63240   4.64251   4.67238   4.73052
 Alpha virt. eigenvalues --   26.16940
          Condensed to atoms (all electrons):
 Mulliken charges:
               1
     1  O   -0.801524
     2  H    0.412100
     3  H    0.386545
     4  Co   0.540143
     5  N   -0.646414
     6  C    0.358689
     7  C   -0.372742
     8  C   -0.370486
     9  C    0.357997
    10  C   -0.295873
    11  C    0.366440
    12  N   -0.576890
    13  C    0.006721
    14  C   -0.326501
    15  C   -0.370536
    16  C    0.005445
    17  N   -0.561238
    18  C    0.335392
    19  C   -0.368673
    20  C   -0.326264
    21  C   -0.304032
    22  C    0.357776
    23  N   -0.642523
    24  C    0.350359
    25  C   -0.371047
    26  C   -0.369560
    27  C   -0.314619
    28  H    0.195792
    29  H    0.193948
    30  H    0.137178
    31  H    0.140221
    32  H    0.141484
    33  H    0.167625
    34  H    0.157885
    35  H    0.167928
    36  H    0.164915
    37  H    0.180621
    38  H    0.171648
    39  H    0.168962
    40  H    0.172267
    41  H    0.156476
    42  H    0.173971
    43  H    0.169488
    44  H    0.167715
    45  H    0.169259
    46  H    0.174475
    47  H    0.183852
    48  H    0.176879
    49  O   -0.797588
    50  H    0.391926
    51  H    0.414387
 Sum of Mulliken charges =   0.00000
 Mulliken charges with hydrogens summed into heavy atoms:
               1
     1  O   -0.002879
     4  Co   0.540143
     5  N   -0.646414
     6  C    0.358689
     7  C   -0.019630
     8  C   -0.025679
     9  C    0.357997
    10  C   -0.154389
    11  C    0.366440
    12  N   -0.576890
    13  C    0.202513
    14  C    0.002242
    15  C   -0.027077
    16  C    0.199393
    17  N   -0.561238
    18  C    0.335392
    19  C   -0.032110
    20  C   -0.000754
    21  C   -0.166854
    22  C    0.357776
    23  N   -0.642523
    24  C    0.350359
    25  C   -0.022711
    26  C   -0.026122
    27  C   -0.174399
    49  O    0.008725
 Electronic spatial extent (au):  <R**2>=           8156.6780
 Charge=              0.0000 electrons
 Dipole moment (field-independent basis, Debye):
    X=             -0.6236    Y=              1.4067    Z=              0.8297  Tot=              1.7482
 Quadrupole moment (field-independent basis, Debye-Ang):
   XX=           -138.6133   YY=           -137.8959   ZZ=           -177.5240
   XY=              1.4365   XZ=             -0.5429   YZ=              6.5372
 Traceless Quadrupole moment (field-independent basis, Debye-Ang):
   XX=             12.7312   YY=             13.4485   ZZ=            -26.1796
   XY=              1.4365   XZ=             -0.5429   YZ=              6.5372
 Octapole moment (field-independent basis, Debye-Ang**2):
  XXX=             -5.1782  YYY=              6.1216  ZZZ=             27.3631  XYY=             -7.6814
  XXY=             -1.6997  XXZ=              0.0239  XZZ=            -14.0157  YZZ=             17.3258
  YYZ=            -16.1467  XYZ=              9.3647
 Hexadecapole moment (field-independent basis, Debye-Ang**3):
 XXXX=          -4852.7808 YYYY=          -4517.9527 ZZZZ=          -1123.5188 XXXY=             10.9639
 XXXZ=              2.6208 YYYX=              5.0435 YYYZ=            -29.5784 ZZZX=             -0.1109
 ZZZY=             63.5708 XXYY=          -1524.4052 XXZZ=          -1028.0015 YYZZ=           -982.5521
 XXYZ=              6.1421 YYXZ=            -15.7822 ZZXY=             13.8523
 N-N= 3.156621845409D+03 E-N=-1.218820633470D+04  KE= 2.479493582456D+03
 Calling FoFJK, ICntrl=      2527 FMM=F ISym2X=0 I1Cent= 0 IOpClX= 0 NMat=1 NMatS=1 NMatT=0.
 ***** Axes restored to original set *****
 -------------------------------------------------------------------
 Center     Atomic                   Forces (Hartrees/Bohr)
 Number     Number              X              Y              Z
 -------------------------------------------------------------------
      1        8           0.001183224   -0.000328803   -0.001689078
      2        1           0.000936347    0.000726791    0.001308511
      3        1          -0.001520526   -0.000051074    0.000596826
      4       27          -0.000140550   -0.001827609   -0.000356215
      5        7          -0.000681946   -0.001293658   -0.000234116
      6        6          -0.000378266    0.001370054    0.000271765
      7        6          -0.003529686   -0.000204085   -0.001610723
      8        6          -0.000558878   -0.003751072    0.000855148
      9        6           0.000558667    0.000051110   -0.000010306
     10        6          -0.001100027   -0.000804096   -0.000378329
     11        6           0.001136228   -0.000334319   -0.000075933
     12        7          -0.002871774    0.000624948   -0.000987175
     13        6           0.001578244    0.000587751    0.004792875
     14        6           0.000060613    0.003202960   -0.002034109
     15        6          -0.003630969    0.001051399    0.001457904
     16        6          -0.001584298    0.000598742   -0.004886090
     17        7           0.002784009    0.000549404    0.001394768
     18        6          -0.000980046   -0.000356155   -0.000050541
     19        6           0.003580930    0.001220705   -0.001356598
     20        6          -0.000163473    0.003112092    0.002143310
     21        6           0.000024795   -0.000963792    0.000014956
     22        6          -0.000623711   -0.000019060    0.000080337
     23        7           0.000987986   -0.001131537   -0.000009546
     24        6           0.000228189    0.001286182   -0.000198144
     25        6           0.003486959   -0.000248609    0.001742001
     26        6           0.000741000   -0.003677965   -0.001146112
     27        6           0.001122564   -0.000762512    0.000280349
     28        1          -0.001403744   -0.000241664   -0.004288354
     29        1           0.001263644   -0.000327058    0.004301154
     30        1          -0.000067908    0.004146245    0.000122337
     31        1          -0.004091073   -0.000460094   -0.000340417
     32        1           0.004143199   -0.000376569    0.000237153
     33        1           0.000343362   -0.000928158   -0.003923733
     34        1           0.000160073   -0.003595221    0.001720279
     35        1          -0.000034085    0.003058462    0.002557174
     36        1          -0.003242640   -0.000818679   -0.002194555
     37        1          -0.001158716    0.000216098   -0.003841690
     38        1          -0.001515532   -0.000636893    0.003649086
     39        1          -0.000014576    0.003296048   -0.002287408
     40        1          -0.000227687   -0.001070763    0.003914203
     41        1          -0.000071989   -0.003537265   -0.001862163
     42        1           0.001475822   -0.000437577   -0.003706375
     43        1           0.003300882   -0.000797980    0.002156501
     44        1          -0.003616237   -0.000031079    0.001797372
     45        1           0.003496803    0.000197047   -0.001952351
     46        1          -0.000817587    0.001659412    0.003551946
     47        1           0.001326272   -0.000052643    0.003797993
     48        1           0.000649997    0.001994097   -0.003428496
     49        8           0.001443979   -0.001118743    0.001015122
     50        1          -0.001449502    0.000734217    0.000401846
     51        1          -0.000538366    0.000500966   -0.001312358
 -------------------------------------------------------------------
 Cartesian Forces:  Max     0.004886090 RMS     0.001953663

 GradGradGradGradGradGradGradGradGradGradGradGradGradGradGradGradGradGrad
 Berny optimization.
 FormGI is forming the generalized inverse of G from B-inverse, IUseBI=4.
 Internal  Forces:  Max     0.004488593 RMS     0.001029169
 Search for a local minimum.
 Step number   1 out of a maximum of  306
 All quantities printed in internal units (Hartrees-Bohrs-Radians)
 Mixed Optimization -- RFO/linear search
 Second derivative matrix not updated -- first step.
 ITU=  0
     Eigenvalues ---    0.00230   0.00381   0.00466   0.00500   0.00509
     Eigenvalues ---    0.00522   0.00683   0.01127   0.01136   0.01484
     Eigenvalues ---    0.01508   0.01559   0.01598   0.01609   0.01650
     Eigenvalues ---    0.01697   0.01797   0.01914   0.01972   0.02102
     Eigenvalues ---    0.02118   0.02138   0.02201   0.02206   0.02349
     Eigenvalues ---    0.02480   0.02922   0.03075   0.03249   0.03279
     Eigenvalues ---    0.03423   0.03541   0.03748   0.03904   0.03943
     Eigenvalues ---    0.03946   0.03976   0.03984   0.04135   0.04635
     Eigenvalues ---    0.04706   0.04819   0.04979   0.05327   0.05505
     Eigenvalues ---    0.05559   0.05577   0.05620   0.05882   0.05885
     Eigenvalues ---    0.05897   0.05915   0.06205   0.06574   0.06621
     Eigenvalues ---    0.06727   0.07132   0.07454   0.07846   0.07931
     Eigenvalues ---    0.07999   0.08011   0.08024   0.08050   0.08075
     Eigenvalues ---    0.08181   0.08203   0.08516   0.09791   0.10004
     Eigenvalues ---    0.10231   0.10318   0.11965   0.12881   0.13442
     Eigenvalues ---    0.15624   0.15978   0.15995   0.15999   0.16000
     Eigenvalues ---    0.16000   0.16821   0.18996   0.20409   0.20758
     Eigenvalues ---    0.20835   0.22090   0.22361   0.22455   0.22479
     Eigenvalues ---    0.22744   0.23624   0.23873   0.23887   0.24549
     Eigenvalues ---    0.25001   0.25861   0.26454   0.27045   0.27190
     Eigenvalues ---    0.27480   0.27592   0.27766   0.28270   0.29135
     Eigenvalues ---    0.29160   0.29780   0.30100   0.30234   0.30283
     Eigenvalues ---    0.30968   0.32638   0.32643   0.32660   0.32740
     Eigenvalues ---    0.32769   0.32794   0.32831   0.33020   0.33044
     Eigenvalues ---    0.33176   0.33218   0.33242   0.33262   0.33315
     Eigenvalues ---    0.33326   0.33382   0.33391   0.34208   0.34290
     Eigenvalues ---    0.34322   0.38944   0.39166   0.40882   0.41548
     Eigenvalues ---    0.43390   0.43692   0.46515   0.47035   0.47358
     Eigenvalues ---    0.47863   0.49151   0.49192   0.51475   0.51520
     Eigenvalues ---    0.52266   0.52505
 RFO step:  Lambda=-1.31586743D-03 EMin= 2.30000000D-03
 Linear search not attempted -- first point.
 Iteration  1 RMS(Cart)=  0.00611371 RMS(Int)=  0.00001682
 Iteration  2 RMS(Cart)=  0.00001664 RMS(Int)=  0.00000366
 Iteration  3 RMS(Cart)=  0.00000000 RMS(Int)=  0.00000366
 Variable       Old X    -DE/DX   Delta X   Delta X   Delta X     New X
                                 (Linear)    (Quad)   (Total)
    R1        1.87352  -0.00119   0.00000  -0.00242  -0.00242   1.87110
    R2        1.85105  -0.00162   0.00000  -0.00314  -0.00314   1.84791
    R3        4.31884   0.00002   0.00000   0.00721   0.00721   4.32606
    R4        4.51214   0.00004   0.00000   0.00378   0.00378   4.51592
    R5        3.56824  -0.00143   0.00000  -0.00509  -0.00509   3.56315
    R6        3.45491  -0.00011   0.00000   0.00017   0.00017   3.45508
    R7        3.44944  -0.00020   0.00000  -0.00044  -0.00045   3.44899
    R8        3.56965  -0.00129   0.00000  -0.00451  -0.00451   3.56514
    R9        4.28186   0.00025   0.00000   0.00586   0.00586   4.28772
   R10        2.64362  -0.00174   0.00000  -0.00386  -0.00386   2.63976
   R11        2.59681  -0.00213   0.00000  -0.00440  -0.00440   2.59242
   R12        2.86922  -0.00091   0.00000  -0.00289  -0.00289   2.86633
   R13        2.60479  -0.00250   0.00000  -0.00558  -0.00557   2.59921
   R14        2.90960  -0.00111   0.00000  -0.00371  -0.00371   2.90590
   R15        2.08483  -0.00400   0.00000  -0.01196  -0.01196   2.07287
   R16        2.09350  -0.00401   0.00000  -0.01218  -0.01218   2.08132
   R17        2.86829  -0.00096   0.00000  -0.00313  -0.00313   2.86517
   R18        2.08628  -0.00398   0.00000  -0.01192  -0.01192   2.07436
   R19        2.09459  -0.00401   0.00000  -0.01219  -0.01219   2.08240
   R20        2.63088  -0.00200   0.00000  -0.00480  -0.00480   2.62608
   R21        2.67131  -0.00143   0.00000  -0.00397  -0.00397   2.66735
   R22        2.06790  -0.00417   0.00000  -0.01209  -0.01209   2.05580
   R23        2.52016  -0.00277   0.00000  -0.00502  -0.00502   2.51515
   R24        2.86887  -0.00068   0.00000  -0.00296  -0.00296   2.86591
   R25        2.82476  -0.00029   0.00000  -0.00090  -0.00091   2.82385
   R26        4.47758  -0.00027   0.00000  -0.00764  -0.00764   4.46993
   R27        2.90931  -0.00103   0.00000  -0.00297  -0.00297   2.90635
   R28        2.87984  -0.00057   0.00000  -0.00185  -0.00184   2.87800
   R29        2.09722  -0.00412   0.00000  -0.01328  -0.01328   2.08394
   R30        2.92768  -0.00106   0.00000  -0.00370  -0.00370   2.92398
   R31        2.08974  -0.00406   0.00000  -0.01224  -0.01224   2.07750
   R32        2.08387  -0.00399   0.00000  -0.01191  -0.01191   2.07196
   R33        2.09653  -0.00400   0.00000  -0.01221  -0.01221   2.08432
   R34        2.08670  -0.00401   0.00000  -0.01204  -0.01204   2.07466
   R35        2.82567  -0.00039   0.00000  -0.00093  -0.00092   2.82474
   R36        2.91005  -0.00100   0.00000  -0.00285  -0.00285   2.90720
   R37        2.09692  -0.00449   0.00000  -0.01370  -0.01370   2.08322
   R38        2.52178  -0.00263   0.00000  -0.00473  -0.00473   2.51704
   R39        2.87028  -0.00073   0.00000  -0.00310  -0.00309   2.86718
   R40        2.67424  -0.00152   0.00000  -0.00409  -0.00408   2.67016
   R41        2.92721  -0.00107   0.00000  -0.00391  -0.00391   2.92330
   R42        2.08743  -0.00399   0.00000  -0.01198  -0.01198   2.07545
   R43        2.09684  -0.00399   0.00000  -0.01218  -0.01218   2.08466
   R44        2.09017  -0.00404   0.00000  -0.01218  -0.01218   2.07799
   R45        2.08370  -0.00398   0.00000  -0.01188  -0.01188   2.07182
   R46        2.62832  -0.00199   0.00000  -0.00475  -0.00475   2.62357
   R47        2.06980  -0.00415   0.00000  -0.01208  -0.01208   2.05772
   R48        2.59862  -0.00202   0.00000  -0.00420  -0.00420   2.59442
   R49        2.86830  -0.00095   0.00000  -0.00309  -0.00309   2.86522
   R50        2.64108  -0.00184   0.00000  -0.00412  -0.00412   2.63696
   R51        2.87010  -0.00093   0.00000  -0.00295  -0.00295   2.86715
   R52        2.60892  -0.00253   0.00000  -0.00563  -0.00562   2.60330
   R53        2.91023  -0.00113   0.00000  -0.00372  -0.00372   2.90651
   R54        2.09415  -0.00401   0.00000  -0.01218  -0.01218   2.08197
   R55        2.08501  -0.00403   0.00000  -0.01205  -0.01205   2.07297
   R56        2.08594  -0.00400   0.00000  -0.01199  -0.01199   2.07396
   R57        2.09511  -0.00400   0.00000  -0.01216  -0.01216   2.08295
   R58        2.06844  -0.00413   0.00000  -0.01200  -0.01200   2.05644
   R59        1.85062  -0.00167   0.00000  -0.00323  -0.00323   1.84739
   R60        1.87432  -0.00147   0.00000  -0.00298  -0.00298   1.87134
    A1        1.76092   0.00037   0.00000   0.00230   0.00230   1.76322
    A2        1.62906   0.00033   0.00000  -0.00031  -0.00030   1.62876
    A3        1.50924  -0.00071   0.00000  -0.00311  -0.00312   1.50612
    A4        1.97667   0.00028   0.00000   0.00379   0.00379   1.98046
    A5        1.39562  -0.00005   0.00000   0.00154   0.00153   1.39715
    A6        1.29110  -0.00039   0.00000  -0.00574  -0.00575   1.28536
    A7        1.58496   0.00000   0.00000  -0.00062  -0.00062   1.58434
    A8        2.51685  -0.00021   0.00000  -0.00286  -0.00286   2.51399
    A9        1.59508   0.00001   0.00000   0.00004   0.00004   1.59512
   A10        1.65176   0.00004   0.00000   0.00031   0.00031   1.65208
   A11        1.51490  -0.00014   0.00000  -0.00153  -0.00153   1.51338
   A12        1.45940   0.00004   0.00000  -0.00075  -0.00075   1.45866
   A13        1.59551  -0.00010   0.00000  -0.00007  -0.00007   1.59543
   A14        1.46318   0.00027   0.00000   0.00309   0.00309   1.46627
   A15        2.05819   0.00016   0.00000   0.00263   0.00263   2.06082
   A16        2.19148  -0.00041   0.00000  -0.00049  -0.00049   2.19099
   A17        2.20150  -0.00016   0.00000   0.00004   0.00004   2.20154
   A18        1.88950   0.00057   0.00000   0.00042   0.00042   1.88992
   A19        1.93885  -0.00024   0.00000  -0.00067  -0.00067   1.93818
   A20        2.18768   0.00002   0.00000  -0.00018  -0.00018   2.18750
   A21        2.15645   0.00022   0.00000   0.00081   0.00081   2.15726
   A22        1.79724  -0.00011   0.00000  -0.00037  -0.00037   1.79687
   A23        1.95855   0.00005   0.00000  -0.00020  -0.00020   1.95835
   A24        1.91175   0.00003   0.00000   0.00002   0.00002   1.91177
   A25        1.98800  -0.00008   0.00000  -0.00127  -0.00127   1.98673
   A26        1.93858  -0.00005   0.00000  -0.00080  -0.00080   1.93778
   A27        1.86976   0.00015   0.00000   0.00247   0.00247   1.87223
   A28        1.79059  -0.00015   0.00000  -0.00071  -0.00071   1.78988
   A29        1.98335  -0.00007   0.00000  -0.00128  -0.00128   1.98207
   A30        1.94477  -0.00006   0.00000  -0.00083  -0.00083   1.94394
   A31        1.96074   0.00005   0.00000  -0.00032  -0.00032   1.96041
   A32        1.91872   0.00007   0.00000   0.00044   0.00044   1.91916
   A33        1.86644   0.00015   0.00000   0.00255   0.00255   1.86899
   A34        1.96151  -0.00008   0.00000  -0.00009  -0.00009   1.96142
   A35        2.16711  -0.00028   0.00000  -0.00146  -0.00146   2.16565
   A36        2.15346   0.00036   0.00000   0.00150   0.00151   2.15496
   A37        2.13561   0.00094   0.00000   0.00263   0.00263   2.13824
   A38        2.06908  -0.00055   0.00000  -0.00180  -0.00180   2.06728
   A39        2.07824  -0.00039   0.00000  -0.00083  -0.00083   2.07741
   A40        2.11281  -0.00040   0.00000  -0.00171  -0.00170   2.11111
   A41        2.21359   0.00027   0.00000   0.00176   0.00177   2.21536
   A42        1.95672   0.00013   0.00000  -0.00006  -0.00006   1.95666
   A43        2.33257  -0.00017   0.00000  -0.00033  -0.00033   2.33224
   A44        2.03600  -0.00017   0.00000  -0.00003  -0.00003   2.03597
   A45        1.91462   0.00034   0.00000   0.00036   0.00035   1.91497
   A46        1.77793  -0.00025   0.00000  -0.00253  -0.00254   1.77539
   A47        1.89691   0.00009   0.00000   0.00223   0.00224   1.89915
   A48        1.82233  -0.00034   0.00000  -0.00284  -0.00285   1.81949
   A49        1.80911   0.00004   0.00000  -0.00026  -0.00026   1.80885
   A50        1.87950   0.00025   0.00000   0.00120   0.00119   1.88070
   A51        2.09068   0.00008   0.00000  -0.00106  -0.00106   2.08961
   A52        1.95111   0.00001   0.00000  -0.00026  -0.00026   1.95086
   A53        1.89389  -0.00002   0.00000   0.00313   0.00313   1.89702
   A54        1.78910  -0.00014   0.00000  -0.00023  -0.00024   1.78886
   A55        1.91531   0.00011   0.00000   0.00093   0.00093   1.91624
   A56        1.97106  -0.00006   0.00000  -0.00139  -0.00139   1.96968
   A57        1.91679  -0.00011   0.00000  -0.00039  -0.00039   1.91640
   A58        1.97811   0.00009   0.00000  -0.00112  -0.00112   1.97699
   A59        1.89157   0.00009   0.00000   0.00210   0.00209   1.89367
   A60        1.78128  -0.00006   0.00000  -0.00138  -0.00139   1.77989
   A61        1.92632   0.00005   0.00000   0.00063   0.00063   1.92695
   A62        1.96299   0.00001   0.00000  -0.00010  -0.00010   1.96289
   A63        1.94406  -0.00005   0.00000  -0.00070  -0.00070   1.94336
   A64        1.98128  -0.00013   0.00000  -0.00130  -0.00129   1.97999
   A65        1.86876   0.00016   0.00000   0.00265   0.00265   1.87141
   A66        1.80694   0.00012   0.00000  -0.00026  -0.00026   1.80668
   A67        2.08324  -0.00006   0.00000  -0.00150  -0.00150   2.08175
   A68        1.90133   0.00013   0.00000   0.00303   0.00302   1.90435
   A69        1.82423  -0.00029   0.00000  -0.00289  -0.00290   1.82133
   A70        1.87682   0.00003   0.00000   0.00115   0.00115   1.87797
   A71        1.95343   0.00006   0.00000   0.00033   0.00033   1.95376
   A72        2.03683  -0.00017   0.00000   0.00012   0.00011   2.03694
   A73        2.33192  -0.00015   0.00000  -0.00037  -0.00037   2.33156
   A74        1.91432   0.00032   0.00000   0.00030   0.00030   1.91461
   A75        1.95762   0.00010   0.00000  -0.00005  -0.00005   1.95757
   A76        2.11169  -0.00033   0.00000  -0.00141  -0.00141   2.11028
   A77        2.21386   0.00024   0.00000   0.00146   0.00147   2.21533
   A78        1.78012  -0.00001   0.00000  -0.00138  -0.00138   1.77873
   A79        1.96614   0.00001   0.00000  -0.00023  -0.00023   1.96591
   A80        1.92752   0.00002   0.00000   0.00065   0.00065   1.92817
   A81        1.98224  -0.00013   0.00000  -0.00139  -0.00139   1.98085
   A82        1.94376  -0.00009   0.00000  -0.00064  -0.00064   1.94312
   A83        1.86520   0.00018   0.00000   0.00279   0.00279   1.86799
   A84        1.79108  -0.00017   0.00000  -0.00014  -0.00015   1.79093
   A85        1.91327   0.00010   0.00000   0.00089   0.00090   1.91416
   A86        1.97160  -0.00001   0.00000  -0.00120  -0.00120   1.97040
   A87        1.91707  -0.00006   0.00000  -0.00081  -0.00081   1.91626
   A88        1.97870   0.00005   0.00000  -0.00103  -0.00103   1.97767
   A89        1.89028   0.00009   0.00000   0.00217   0.00217   1.89245
[...]
      4         27           0       -0.131145   -0.006355   -0.000138
      5          7           0       -1.530505   -1.268099   -0.061154
      6          6           0       -1.370684   -2.656134   -0.080238
      7          6           0       -2.698035   -3.357891    0.137730
      8          6           0       -3.722822   -2.242772   -0.132054
      9          6           0       -2.873570   -0.989513   -0.040892
     10          6           0       -0.176203   -3.317790   -0.244526
     11          6           0        1.056063   -2.639405   -0.367555
     12          7           0        1.119630   -1.313431   -0.274825
     13          6           0        2.534707   -0.862943   -0.447525
     14          6           0        3.369417   -2.120874   -0.150306
     15          6           0        2.421237   -3.262314   -0.591021
     16          6           0        2.641601    0.346947    0.471245
     17          7           0        1.333736    1.047956    0.283044
     18          6           0        1.516654    2.364990    0.356262
     19          6           0        2.970651    2.727763    0.597090
     20          6           0        3.694891    1.428014    0.171942
     21          6           0       -3.401688    0.295586   -0.005409
     22          6           0       -2.649863    1.462585    0.024520
     23          7           0       -1.277308    1.490721    0.048617
     24          6           0       -0.865625    2.824170    0.039262
     25          6           0       -2.041635    3.754403   -0.195986
     26          6           0       -3.253311    2.852220    0.096538
     27          6           0        0.432331    3.257779    0.199799
     28          1           0        2.657183   -0.529130   -1.490487
     29          1           0        2.689064    0.003173    1.517045
     30          1           0       -4.486315    0.394468   -0.007678
     31          1           0        0.624851    4.329113    0.198826
     32          1           0       -0.183531   -4.405800   -0.256356
     33          1           0        3.897158    1.453816   -0.908306
     34          1           0        4.640291    1.263569    0.702368
     35          1           0       -4.559825   -2.233623    0.577738
     36          1           0        3.286741    3.611510    0.027002
     37          1           0       -2.046151    4.086201   -1.246366
     38          1           0        3.140694    2.950292    1.663875
     39          1           0       -4.081421    2.986125   -0.610893
     40          1           0        3.559976   -2.192879    0.929746
     41          1           0        4.331056   -2.128699   -0.677080
     42          1           0        2.560305   -3.509532   -1.656668
     43          1           0        2.558691   -4.189217   -0.019227
     44          1           0       -1.994376    4.652923    0.431301
     45          1           0       -2.815970   -4.235594   -0.509197
     46          1           0       -3.653351    3.037808    1.106493
     47          1           0       -2.761667   -3.705812    1.180725
     48          1           0       -4.152590   -2.331465   -1.142771
     49          8           0        0.739164   -1.112965    2.897159
     50          1           0        0.328503   -0.314553    3.283282
     51          1           0        0.490681   -1.028573    1.943024
 ---------------------------------------------------------------------
 Rotational constants (GHZ):      0.2440352      0.2346645      0.1417104

 **********************************************************************

            Population analysis using the SCF density.

 **********************************************************************

 Orbital symmetries:
       Occupied  (A) (A) (A) (A) (A) (A) (A) (A) (A) (A) (A) (A)
                 (A) (A) (A) (A) (A) (A) (A) (A) (A) (A) (A) (A)
                 (A) (A) (A) (A) (A) (A) (A) (A) (A) (A) (A) (A)
                 (A) (A) (A) (A) (A) (A) (A) (A) (A) (A) (A) (A)
                 (A) (A) (A) (A) (A) (A) (A) (A) (A) (A) (A) (A)
                 (A) (A) (A) (A) (A) (A) (A) (A) (A) (A) (A) (A)
                 (A) (A) (A) (A) (A) (A) (A) (A) (A) (A) (A) (A)
                 (A) (A) (A) (A) (A) (A) (A) (A) (A) (A) (A) (A)
                 (A) (A) (A) (A) (A) (A) (A) (A) (A)
       Virtual   (A) (A) (A) (A) (A) (A) (A) (A) (A) (A) (A) (A)
                 (A) (A) (A) (A) (A) (A) (A) (A) (A) (A) (A) (A)
                 (A) (A) (A) (A) (A) (A) (A) (A) (A) (A) (A) (A)
                 (A) (A) (A) (A) (A) (A) (A) (A) (A) (A) (A) (A)
                 (A) (A) (A) (A) (A) (A) (A) (A) (A) (A) (A) (A)
                 (A) (A) (A) (A) (A) (A) (A) (A) (A) (A) (A) (A)
                 (A) (A) (A) (A) (A) (A) (A) (A) (A) (A) (A) (A)
                 (A) (A) (A) (A) (A) (A) (A) (A) (A) (A) (A) (A)
                 (A) (A) (A) (A) (A) (A) (A) (A) (A) (A) (A) (A)
                 (A) (A) (A) (A) (A) (A) (A) (A) (A) (A) (A) (A)
                 (A) (A) (A) (A) (A) (A) (A) (A) (A) (A) (A) (A)
                 (A) (A) (A) (A) (A) (A) (A) (A) (A) (A) (A) (A)
                 (A) (A) (A) (A) (A) (A) (A) (A) (A) (A) (A) (A)
                 (A) (A) (A) (A) (A) (A) (A) (A) (A) (A) (A) (A)
                 (A) (A) (A) (A) (A) (A) (A) (A) (A) (A) (A) (A)
                 (A) (A) (A) (A) (A) (A) (A) (A) (A) (A) (A) (A)
                 (A) (A) (A) (A) (A) (A) (A) (A) (A) (A) (A) (A)
                 (A) (A) (A) (A) (A) (A) (A) (A) (A) (A) (A) (A)
                 (A) (A) (A) (A) (A) (A) (A) (A) (A) (A) (A) (A)
                 (A) (A) (A) (A) (A) (A) (A) (A) (A) (A) (A) (A)
                 (A) (A) (A) (A) (A) (A) (A) (A) (A) (A) (A) (A)
                 (A) (A) (A) (A) (A) (A) (A) (A) (A) (A) (A) (A)
                 (A) (A) (A) (A) (A) (A) (A) (A) (A) (A) (A) (A)
                 (A) (A) (A) (A) (A) (A) (A) (A) (A) (A) (A) (A)
                 (A) (A) (A) (A) (A) (A) (A) (A) (A) (A) (A) (A)
                 (A) (A) (A) (A) (A) (A) (A) (A) (A) (A) (A) (A)
                 (A) (A) (A) (A) (A) (A) (A) (A) (A) (A) (A) (A)
                 (A) (A) (A) (A) (A) (A) (A) (A) (A) (A) (A) (A)
                 (A) (A) (A) (A) (A) (A) (A) (A) (A) (A) (A) (A)
                 (A) (A) (A) (A) (A) (A) (A) (A)
 The electronic state is 1-A.
 Alpha  occ. eigenvalues -- -276.63472 -32.44804 -28.11616 -28.11445 -28.09680
 Alpha  occ. eigenvalues --  -18.87124 -18.86813 -14.13586 -14.13471 -14.12745
 Alpha  occ. eigenvalues --  -14.12639 -10.03191 -10.02899 -10.02843 -10.02631
 Alpha  occ. eigenvalues --  -10.02537 -10.02522 -10.02477 -10.02477 -10.01027
 Alpha  occ. eigenvalues --  -10.00917 -10.00792 -10.00646 -10.00601 -10.00591
 Alpha  occ. eigenvalues --  -10.00437 -10.00215  -9.99033  -9.98605  -9.98433
 Alpha  occ. eigenvalues --   -3.54721  -2.26110  -2.25881  -2.22473  -0.89922
 Alpha  occ. eigenvalues --   -0.89695  -0.88803  -0.87555  -0.87328  -0.85523
 Alpha  occ. eigenvalues --   -0.74430  -0.71610  -0.71395  -0.70973  -0.70863
 Alpha  occ. eigenvalues --   -0.70764  -0.69771  -0.65061  -0.64308  -0.59158
 Alpha  occ. eigenvalues --   -0.58252  -0.56160  -0.53418  -0.53329  -0.52504
 Alpha  occ. eigenvalues --   -0.50081  -0.49602  -0.48144  -0.45913  -0.45355
 Alpha  occ. eigenvalues --   -0.45100  -0.44101  -0.43527  -0.43404  -0.43005
 Alpha  occ. eigenvalues --   -0.42935  -0.42493  -0.41274  -0.40484  -0.38216
 Alpha  occ. eigenvalues --   -0.37164  -0.36409  -0.35579  -0.35170  -0.34806
 Alpha  occ. eigenvalues --   -0.34269  -0.34202  -0.34047  -0.33866  -0.33353
 Alpha  occ. eigenvalues --   -0.33205  -0.32839  -0.32563  -0.32446  -0.31261
 Alpha  occ. eigenvalues --   -0.30895  -0.30431  -0.30263  -0.30177  -0.29946
 Alpha  occ. eigenvalues --   -0.29006  -0.28699  -0.27343  -0.27138  -0.26692
 Alpha  occ. eigenvalues --   -0.25665  -0.22713  -0.21468  -0.21162  -0.19809
 Alpha  occ. eigenvalues --   -0.17672  -0.15964  -0.13525  -0.13165  -0.12791
 Alpha virt. eigenvalues --   -0.07186  -0.04173  -0.02323  -0.01645   0.01662
 Alpha virt. eigenvalues --    0.04131   0.05190   0.05634   0.05942   0.06525
 Alpha virt. eigenvalues --    0.06986   0.08426   0.09174   0.09797   0.10181
 Alpha virt. eigenvalues --    0.11180   0.11461   0.12013   0.12301   0.12817
 Alpha virt. eigenvalues --    0.13265   0.13365   0.14077   0.14421   0.14915
 Alpha virt. eigenvalues --    0.15187   0.15532   0.16094   0.16453   0.16827
 Alpha virt. eigenvalues --    0.17019   0.17218   0.17486   0.18036   0.18498
 Alpha virt. eigenvalues --    0.19345   0.19598   0.20203   0.20405   0.20577
 Alpha virt. eigenvalues --    0.20835   0.20914   0.21519   0.22647   0.23718
 Alpha virt. eigenvalues --    0.23996   0.24797   0.25758   0.27281   0.27837
 Alpha virt. eigenvalues --    0.29654   0.29737   0.30587   0.31954   0.32930
 Alpha virt. eigenvalues --    0.34786   0.35356   0.36603   0.38823   0.39912
 Alpha virt. eigenvalues --    0.40906   0.42162   0.42493   0.44814   0.44916
 Alpha virt. eigenvalues --    0.49461   0.50262   0.50310   0.51574   0.51600
 Alpha virt. eigenvalues --    0.52144   0.52434   0.53177   0.53634   0.53890
 Alpha virt. eigenvalues --    0.53968   0.54769   0.55556   0.55868   0.56213
 Alpha virt. eigenvalues --    0.56430   0.57646   0.58291   0.59120   0.59490
 Alpha virt. eigenvalues --    0.59957   0.60506   0.61349   0.61704   0.62096
 Alpha virt. eigenvalues --    0.62496   0.63763   0.64517   0.65656   0.66587
 Alpha virt. eigenvalues --    0.67338   0.68233   0.69348   0.70295   0.71564
 Alpha virt. eigenvalues --    0.71674   0.72219   0.72916   0.72975   0.74445
 Alpha virt. eigenvalues --    0.74839   0.75590   0.77294   0.78089   0.78338
 Alpha virt. eigenvalues --    0.79044   0.79996   0.81107   0.81672   0.81876
 Alpha virt. eigenvalues --    0.82261   0.82504   0.82710   0.82758   0.83389
 Alpha virt. eigenvalues --    0.83510   0.83881   0.84072   0.84480   0.84777
 Alpha virt. eigenvalues --    0.84916   0.85689   0.87335   0.87783   0.88432
 Alpha virt. eigenvalues --    0.88783   0.89270   0.89657   0.90071   0.90827
 Alpha virt. eigenvalues --    0.91879   0.92482   0.92660   0.92997   0.93191
 Alpha virt. eigenvalues --    0.94135   0.94721   0.95311   0.96406   0.97143
 Alpha virt. eigenvalues --    0.97327   0.98151   0.99841   1.01393   1.02952
 Alpha virt. eigenvalues --    1.03202   1.04863   1.05471   1.06341   1.07053
 Alpha virt. eigenvalues --    1.07442   1.08831   1.09410   1.11405   1.12046
 Alpha virt. eigenvalues --    1.13729   1.14798   1.15765   1.17001   1.18558
 Alpha virt. eigenvalues --    1.18934   1.19269   1.20626   1.22322   1.23944
 Alpha virt. eigenvalues --    1.25068   1.26009   1.27238   1.29806   1.30645
 Alpha virt. eigenvalues --    1.31393   1.34787   1.35762   1.37149   1.37447
 Alpha virt. eigenvalues --    1.37908   1.39751   1.40480   1.41383   1.43146
 Alpha virt. eigenvalues --    1.44272   1.45884   1.47458   1.49002   1.49697
 Alpha virt. eigenvalues --    1.50988   1.54073   1.55796   1.56198   1.58022
 Alpha virt. eigenvalues --    1.59385   1.62020   1.62255   1.64316   1.66319
 Alpha virt. eigenvalues --    1.66945   1.69544   1.70190   1.71770   1.71868
 Alpha virt. eigenvalues --    1.72872   1.73227   1.73732   1.74375   1.75245
 Alpha virt. eigenvalues --    1.75526   1.75761   1.76478   1.76995   1.77301
 Alpha virt. eigenvalues --    1.77942   1.78114   1.78524   1.78589   1.79402
 Alpha virt. eigenvalues --    1.80418   1.80568   1.81008   1.82075   1.82465
 Alpha virt. eigenvalues --    1.83598   1.84278   1.84472   1.88032   1.88637
 Alpha virt. eigenvalues --    1.89468   1.90743   1.90956   1.92234   1.92578
 Alpha virt. eigenvalues --    1.94349   1.94882   1.96144   1.96211   1.96607
 Alpha virt. eigenvalues --    1.97391   1.98965   1.99483   2.00455   2.01014
 Alpha virt. eigenvalues --    2.03691   2.05380   2.06354   2.07168   2.07212
 Alpha virt. eigenvalues --    2.07510   2.08931   2.09328   2.12272   2.12672
 Alpha virt. eigenvalues --    2.13272   2.15448   2.17264   2.17426   2.18988
 Alpha virt. eigenvalues --    2.20027   2.20514   2.21780   2.22756   2.23074
 Alpha virt. eigenvalues --    2.23530   2.24236   2.25175   2.26109   2.27291
 Alpha virt. eigenvalues --    2.28518   2.29080   2.29594   2.30546   2.31218
 Alpha virt. eigenvalues --    2.32860   2.33970   2.34387   2.35422   2.37891
 Alpha virt. eigenvalues --    2.40672   2.41472   2.41927   2.43934   2.46037
 Alpha virt. eigenvalues --    2.46323   2.47043   2.48017   2.48767   2.49569
 Alpha virt. eigenvalues --    2.50314   2.50791   2.51299   2.51788   2.54885
 Alpha virt. eigenvalues --    2.55833   2.58214   2.58354   2.59279   2.60138
 Alpha virt. eigenvalues --    2.61696   2.63343   2.63617   2.64921   2.66334
 Alpha virt. eigenvalues --    2.67182   2.71169   2.72013   2.73270   2.74454
 Alpha virt. eigenvalues --    2.75794   2.76820   2.79312   2.80986   2.81575
 Alpha virt. eigenvalues --    2.82503   2.84201   2.85032   2.86504   2.88579
 Alpha virt. eigenvalues --    2.95698   2.95996   3.05771   3.08044   3.11104
 Alpha virt. eigenvalues --    3.19177   3.22817   3.34385   3.37741   3.41977
 Alpha virt. eigenvalues --    3.77055   3.79858   4.09771   4.11515   4.13348
 Alpha virt. eigenvalues --    4.15088   4.16001   4.17334   4.17707   4.17904
 Alpha virt. eigenvalues --    4.23426   4.24773   4.26649   4.29430   4.32789
 Alpha virt. eigenvalues --    4.32828   4.34536   4.45993   4.53487   4.54777
 Alpha virt. eigenvalues --    4.59830   4.63324   4.64442   4.67463   4.73246
 Alpha virt. eigenvalues --   26.16164
          Condensed to atoms (all electrons):
 Mulliken charges:
               1
     1  O   -0.803081
     2  H    0.409001
     3  H    0.383978
     4  Co   0.540027
     5  N   -0.645940
     6  C    0.358531
     7  C   -0.373047
     8  C   -0.370629
     9  C    0.358646
    10  C   -0.295024
    11  C    0.366521
    12  N   -0.577630
    13  C    0.005672
    14  C   -0.327275
    15  C   -0.371080
    16  C    0.006210
    17  N   -0.562851
    18  C    0.339868
    19  C   -0.369326
    20  C   -0.326677
    21  C   -0.305702
    22  C    0.357927
    23  N   -0.642663
    24  C    0.351606
    25  C   -0.371422
    26  C   -0.369763
    27  C   -0.317823
    28  H    0.197226
    29  H    0.194195
    30  H    0.136182
    31  H    0.139293
    32  H    0.140721
    33  H    0.170465
    34  H    0.157613
    35  H    0.167942
    36  H    0.165190
    37  H    0.181512
    38  H    0.172554
    39  H    0.169395
    40  H    0.174491
    41  H    0.156773
    42  H    0.174682
    43  H    0.170416
    44  H    0.168257
    45  H    0.169333
    46  H    0.175620
    47  H    0.185056
    48  H    0.178090
    49  O   -0.798964
    50  H    0.391494
    51  H    0.414406
 Sum of Mulliken charges =   0.00000
 Mulliken charges with hydrogens summed into heavy atoms:
               1
     1  O   -0.010102
     4  Co   0.540027
     5  N   -0.645940
     6  C    0.358531
     7  C   -0.018657
     8  C   -0.024597
     9  C    0.358646
    10  C   -0.154303
    11  C    0.366521
    12  N   -0.577630
    13  C    0.202898
    14  C    0.003989
    15  C   -0.025983
    16  C    0.200405
    17  N   -0.562851
    18  C    0.339868
    19  C   -0.031582
    20  C    0.001401
    21  C   -0.169520
    22  C    0.357927
    23  N   -0.642663
    24  C    0.351606
    25  C   -0.021653
    26  C   -0.024748
    27  C   -0.178530
    49  O    0.006936
 Electronic spatial extent (au):  <R**2>=           8148.7337
 Charge=              0.0000 electrons
 Dipole moment (field-independent basis, Debye):
    X=             -0.6919    Y=              1.4165    Z=              0.8626  Tot=              1.7970
 Quadrupole moment (field-independent basis, Debye-Ang):
   XX=           -138.8299   YY=           -138.2514   ZZ=           -176.3161
   XY=              1.4224   XZ=             -0.3713   YZ=              6.9358
 Traceless Quadrupole moment (field-independent basis, Debye-Ang):
   XX=             12.3026   YY=             12.8811   ZZ=            -25.1836
   XY=              1.4224   XZ=             -0.3713   YZ=              6.9358
 Octapole moment (field-independent basis, Debye-Ang**2):
  XXX=             -5.2017  YYY=              9.4650  ZZZ=             28.6289  XYY=             -7.6867
  XXY=             -2.0753  XXZ=              0.5641  XZZ=            -14.3498  YZZ=             15.9974
  YYZ=            -18.4579  XYZ=             10.2149
 Hexadecapole moment (field-independent basis, Debye-Ang**3):
 XXXX=          -4844.1404 YYYY=          -4521.0825 ZZZZ=          -1083.6808 XXXY=             13.0554
 XXXZ=              3.8972 YYYX=              6.4021 YYYZ=            -29.7374 ZZZX=              1.3353
 ZZZY=             59.9827 XXYY=          -1524.0398 XXZZ=          -1025.0338 YYZZ=           -986.3126
 XXYZ=              7.6705 YYXZ=            -18.5668 ZZXY=             13.2093
 N-N= 3.159755076280D+03 E-N=-1.219476119878D+04  KE= 2.479782395302D+03
 1\1\GINC-NID00811\FOpt\RTPSSTPSS\6-31G(d)\C19H25Co1N4O2\PARKSJM\28-Oct
 -2015\0\\# tpsstpss/6-31G(d) opt integral=ultrafine scf=tight\\H2O.Co.
 1.Corrin.H2O\\0,1\O,0.9688291384,0.9386381914,2.9867083253\H,0.5964176
 796,0.597559664,2.1365841362\H,1.9267663561,0.9267428141,2.7928235086\
 Co,-0.0369648646,-0.0966763872,0.0198088251\N,-1.4023039225,-1.3924053
 766,-0.08442863\C,-2.7700706262,-1.1233052852,-0.1811109703\C,-3.54859
 92675,-2.3830037037,-0.5110907188\C,-2.5440994583,-3.5013371071,-0.184
 3318372\C,-1.2265027235,-2.7520600818,-0.132149332\C,-3.3506416275,0.1
 142288046,-0.0294163405\C,-2.593989143,1.2840652068,0.2003281161\N,-1.
 2641030743,1.2448078241,0.2269069102\C,-0.7242668884,2.6133446637,0.49
 31623803\C,-1.8826174543,3.5545378866,0.1191952754\C,-3.1283988183,2.6
 867017091,0.4209403923\C,0.5684703654,2.6527156054,-0.3110007189\N,1.1
 475304976,1.2878943463,-0.1127689644\C,2.4758952118,1.3676414286,-0.06
 29313954\C,2.9690578604,2.7950627867,-0.2144892247\C,1.6953236239,3.60
 65903398,0.1226273912\C,0.0123874477,-3.3793893915,-0.0750907255\C,1.2
 313393556,-2.7222609672,0.0266955164\N,1.3663705874,-1.3562277718,0.05
 83341637\C,2.7210431441,-1.0524837828,0.2006636812\C,3.5335297133,-2.3
 05672816,0.4709567812\C,2.5715799928,-3.4318029777,0.0536484388\C,3.26
 53445515,0.2112829885,0.1292038269\H,-0.4778933299,2.6756966156,1.5653
 626702\H,0.3254522004,2.7605611137,-1.3803190128\H,0.0274641273,-4.467
 9696564,-0.1061535638\H,4.3437562255,0.3177982545,0.2316892667\H,-4.43
 26161072,0.1931457973,-0.1134509509\H,1.638578817,3.7717698833,1.20798
 8739\H,1.6523332587,4.5784384201,-0.3831763562\H,-2.5347132263,-4.3134
 589306,-0.9224582595\H,3.8191117694,3.0215567993,0.4428009234\H,3.7675
 235675,-2.3699219847,1.5454466401\H,3.2996218822,2.9806322964,-1.25022
 80489\H,2.5771810653,-4.2899803688,0.7375023533\H,-1.8417423906,3.7844
 098509,-0.954814621\H,-1.8645883872,4.4965410115,0.6800928662\H,-3.459
 7485045,2.8111073571,1.4653493434\H,-3.9864838189,2.915572105,-0.22427
 26914\H,4.4861365695,-2.3101883175,-0.0727158272\H,-4.4877170488,-2.45
 11839566,0.0512223667\H,2.8167431175,-3.8130846026,-0.9508430686\H,-3.
 8044814291,-2.3856033667,-1.5822830967\H,-2.7565453898,-3.9545480786,0
 .7972904003\O,-0.8068807523,0.9504734786,-2.9275721777\H,-0.0105166947
 ,0.490034387,-3.2577173904\H,-0.8284811784,0.6659012809,-1.9800543156\
 \Version=AS64L-G09RevD.01\State=1-A\HF=-2491.5121677\RMSD=3.869e-09\RM
 SF=5.059e-06\Dipole=0.5632868,-0.3048041,-0.2994176\Quadrupole=10.4262
 266,8.9100791,-19.3363057,1.0254737,-2.4381289,1.663183\PG=C01 [X(C19H
 25Co1N4O2)]\\@


 REALITY IS FOR PEOPLE WHO CAN'T FACE SCIENCE FICTION.
 Job cpu time:       0 days  0 hours  5 minutes 13.6 seconds.
 File lengths (MBytes):  RWF=    129 Int=      0 D2E=      0 Chk=     18 Scr=      1
 Normal termination of Gaussian 09 at Wed Oct 28 20:27:06 2015.
