 Entering GApplication 60295195 resources: utime ~288025s, stime ~5999s, Rss ~1220972, inblocks ~119944299, outblocks ~38538931
.com
 Output=/global/homes/p/parksjm/tpss/H2O.Co.2.Corrin.Bzm/H2O.Co.2.Corrin.Bzm.tpss.631gs.opt.log
 Initial command:
 /usr/common/usg/g09/d1/g09/l1.exe "/scratch/scratchdirs/parksjm/g09/13504190.hopque01/Gau-809.inp" -scrdir="/scratch/scratchdirs/parksjm/g09/13504190.hopque01/"
 Entering Link 1 = /usr/common/usg/g09/d1/g09/l1.exe PID=       810.
  
 Copyright (c) 1988,1990,1992,1993,1995,1998,2003,2009,2013,
            Gaussian, Inc.  All Rights Reserved.
  
 This is part of the Gaussian(R) 09 program.  It is based on
 the Gaussian(R) 03 system (copyright 2003, Gaussian, Inc.),
 the Gaussian(R) 98 system (copyright 1998, Gaussian, Inc.),
 the Gaussian(R) 94 system (copyright 1995, Gaussian, Inc.),
 the Gaussian 92(TM) system (copyright 1992, Gaussian, Inc.),
 the Gaussian 90(TM) system (copyright 1990, Gaussian, Inc.),
 the Gaussian 88(TM) system (copyright 1988, Gaussian, Inc.),
 the Gaussian 86(TM) system (copyright 1986, Carnegie Mellon
 University), and the Gaussian 82(TM) system (copyright 1983,
 Carnegie Mellon University). Gaussian is a federally registered
 trademark of Gaussian, Inc.
  
 This software contains proprietary and confidential information,
 including trade secrets, belonging to Gaussian, Inc.
  
 This software is provided under written license and may be
 used, copied, transmitted, or stored only in accord with that
 written license.
  
 The following legend is applicable only to US Government
 contracts under FAR:
  
                    RESTRICTED RIGHTS LEGEND
  
 Use, reproduction and disclosure by the US Government is
 subject to restrictions as set forth in subparagraphs (a)
 and (c) of the Commercial Computer Software - Restricted
 Rights clause in FAR 52.227-19.
  
 Gaussian, Inc.
 340 Quinnipiac St., Bldg. 40, Wallingford CT 06492
  
  
 ---------------------------------------------------------------
 Warning -- This program may not be used in any manner that
 competes with the business of Gaussian, Inc. or will provide
 assistance to any competitor of Gaussian, Inc.  The licensee
 of this program is prohibited from giving any competitor of
 Gaussian, Inc. access to this program.  By using this program,
 the user acknowledges that Gaussian, Inc. is engaged in the
 business of creating and licensing software in the field of
 computational chemistry and represents and warrants to the
 licensee that it is not a competitor of Gaussian, Inc. and that
 it will not use this program in any manner prohibited above.
 ---------------------------------------------------------------
  

 Cite this work as:
 Gaussian 09, Revision D.01,
 M. J. Frisch, G. W. Trucks, H. B. Schlegel, G. E. Scuseria, 
 M. A. Robb, J. R. Cheeseman, G. Scalmani, V. Barone, B. Mennucci, 
 G. A. Petersson, H. Nakatsuji, M. Caricato, X. Li, H. P. Hratchian, 
 A. F. Izmaylov, J. Bloino, G. Zheng, J. L. Sonnenberg, M. Hada, 
 M. Ehara, K. Toyota, R. Fukuda, J. Hasegawa, M. Ishida, T. Nakajima, 
 Y. Honda, O. Kitao, H. Nakai, T. Vreven, J. A. Montgomery, Jr., 
 J. E. Peralta, F. Ogliaro, M. Bearpark, J. J. Heyd, E. Brothers, 
 K. N. Kudin, V. N. Staroverov, T. Keith, R. Kobayashi, J. Normand, 
 K. Raghavachari, A. Rendell, J. C. Burant, S. S. Iyengar, J. Tomasi, 
 M. Cossi, N. Rega, J. M. Millam, M. Klene, J. E. Knox, J. B. Cross, 
 V. Bakken, C. Adamo, J. Jaramillo, R. Gomperts, R. E. Stratmann, 
 O. Yazyev, A. J. Austin, R. Cammi, C. Pomelli, J. W. Ochterski, 
 R. L. Martin, K. Morokuma, V. G. Zakrzewski, G. A. Voth, 
 P. Salvador, J. J. Dannenberg, S. Dapprich, A. D. Daniels, 
 O. Farkas, J. B. Foresman, J. V. Ortiz, J. Cioslowski, 
 and D. J. Fox, Gaussian, Inc., Wallingford CT, 2013.
 
 ******************************************
 Gaussian 09:  AS64L-G09RevD.01 24-Apr-2013
                28-Oct-2015 
 ******************************************
 %nproc=24
 Will use up to   24 processors via shared memory.
 %chk=H2O.Co.2.Corrin.Bzm.chk
 %mem=7000mb
 ----------------------------------------------------
 # tpsstpss/6-31G(d) opt integral=ultrafine scf=tight
 ----------------------------------------------------
 1/14=-1,18=20,19=15,26=4,38=1/1,3;
 2/9=110,12=2,17=6,18=5,40=1/2;
 3/5=1,6=6,7=1,11=2,16=1,25=1,30=1,71=1,74=2523,75=-5/1,2,3;
 4//1;
 5/5=2,32=2,38=5/2;
 6/7=2,8=2,9=2,10=2,28=1/1;
 7//1,2,3,16;
 1/14=-1,18=20,19=15,26=4/3(2);
 2/9=110/2;
 99//99;
 2/9=110/2;
 3/5=1,6=6,7=1,11=2,16=1,25=1,30=1,71=1,74=2523,75=-5/1,2,3;
 4/5=5,16=3,69=1/1;
 5/5=2,32=2,38=5/2;
 7//1,2,3,16;
 1/14=-1,18=20,19=15,26=4/3(-5);
 2/9=110/2;
 6/7=2,8=2,9=2,10=2,19=2,28=1/1;
 99/9=1/99;
 -------------------
 H2O.Co.2.Corrin.Bzm
 -------------------
 Symbolic Z-matrix:
 Charge =  1 Multiplicity = 2
 O                     0.21955   0.2175   -2.81836 
 H                    -0.53708  -0.23777  -3.24255 
 H                     0.08893   1.16274  -3.0407 
 Co                   -0.0204    0.07121  -0.32575 
 N                    -1.35207  -1.31803  -0.47608 
 C                    -1.0967   -2.68851  -0.49747 
 C                    -2.38929  -3.48737  -0.56432 
 C                    -3.48789  -2.40875  -0.4682 
 C                    -2.70312  -1.10916  -0.4696 
 C                     0.15896  -3.26535  -0.47101 
 C                     1.36278  -2.50386  -0.48932 
 N                     1.34999  -1.18202  -0.47042 
 C                     2.72258  -0.64893  -0.68501 
 C                     3.63594  -1.8055   -0.23873 
 C                     2.77908  -3.05     -0.59168 
 C                     2.74333   0.69966   0.03326 
 N                     1.39882   1.27758  -0.24239 
 C                     1.47413   2.58292  -0.43737 
 C                     2.90204   3.09122  -0.33132 
 C                     3.7308    1.78548  -0.44513 
 C                    -3.3136    0.1471   -0.46368 
 C                    -2.64792   1.37332  -0.49801 
 N                    -1.28836   1.51632  -0.48272 
 C                    -0.96645   2.85868  -0.67685 
 C                    -2.21827   3.68955  -0.91138 
 C                    -3.35955   2.71164  -0.56521 
 C                     0.31439   3.37664  -0.67482 
 C                    -0.21881   0.20383   4.15563 
 C                    -0.19152   0.86531   2.89401 
 N                    -0.1261   -0.08942   1.86766 
 C                    -0.11325  -1.26847   2.4829 
 N                    -0.16802  -1.15291   3.84748 
 C                    -0.22847   2.27231   2.84447 
 C                    -0.29051   2.96627   4.05801 
 C                    -0.31704   2.29056   5.30333 
 C                    -0.28187   0.8934    5.37644 
 H                     2.83464  -0.46077  -1.77361 
 H                     2.82361   0.53088   1.12721 
 H                    -4.40793   0.171    -0.46426 
 H                     0.44185   4.44932  -0.84741 
 H                     0.22893  -4.35715  -0.48609 
 H                     4.00347   1.603    -1.501 
 H                     4.65995   1.81026   0.14597 
 H                    -4.08557  -2.4942    0.45826 
 H                     3.14443   3.83726  -1.10773 
 H                    -2.26775   4.01058  -1.96936 
 H                     3.04915   3.58734   0.6487 
 H                    -4.18133   2.71039  -1.30103 
 H                     3.80074  -1.7548    0.85384 
 H                     4.61873  -1.79913  -0.73649 
 H                     2.97514  -3.3992   -1.62527 
 H                     2.94968  -3.91251   0.07572 
 H                    -2.22134   4.60752  -0.30021 
 H                    -2.4404   -4.05207  -1.5131 
 H                    -3.8102    2.94282   0.4192 
 H                    -2.44378  -4.23316   0.2478 
 H                    -4.20463  -2.44549  -1.30773 
 H                    -0.06539  -2.23305   1.97689 
 H                    -0.16877  -1.92549   4.51136 
 H                    -0.20884   2.80149   1.88797 
 H                    -0.31963   4.0609    4.04832 
 H                    -0.36631   2.87274   6.22908 
 H                    -0.3025    0.37032   6.33788 
 
 Add virtual bond connecting atoms N30        and Co4        Dist= 4.16D+00.
 Add virtual bond connecting atoms Co4        and O1         Dist= 4.74D+00.

 GradGradGradGradGradGradGradGradGradGradGradGradGradGradGradGradGradGrad
 Berny optimization.
 Initialization pass.
                           ----------------------------
                           !    Initial Parameters    !
                           ! (Angstroms and Degrees)  !
 --------------------------                            --------------------------
 ! Name  Definition              Value          Derivative Info.                !
 --------------------------------------------------------------------------------
 ! R1    R(1,2)                  0.9796         estimate D2E/DX2                !
 ! R2    R(1,3)                  0.9798         estimate D2E/DX2                !
 ! R3    R(1,4)                  2.5084         estimate D2E/DX2                !
 ! R4    R(4,5)                  1.9303         estimate D2E/DX2                !
 ! R5    R(4,12)                 1.8627         estimate D2E/DX2                !
 ! R6    R(4,17)                 1.8645         estimate D2E/DX2                !
 ! R7    R(4,23)                 1.9289         estimate D2E/DX2                !
 ! R8    R(4,30)                 2.2018         estimate D2E/DX2                !
 ! R9    R(5,6)                  1.3942         estimate D2E/DX2                !
 ! R10   R(5,9)                  1.3671         estimate D2E/DX2                !
 ! R11   R(6,7)                  1.521          estimate D2E/DX2                !
 ! R12   R(6,10)                 1.3821         estimate D2E/DX2                !
 ! R13   R(7,8)                  1.5426         estimate D2E/DX2                !
 ! R14   R(7,54)                 1.1053         estimate D2E/DX2                !
 ! R15   R(7,56)                 1.104          estimate D2E/DX2                !
 ! R16   R(8,9)                  1.5182         estimate D2E/DX2                !
 ! R17   R(8,44)                 1.1058         estimate D2E/DX2                !
 ! R18   R(8,57)                 1.1045         estimate D2E/DX2                !
 ! R19   R(9,21)                 1.3968         estimate D2E/DX2                !
 ! R20   R(10,11)                1.4246         estimate D2E/DX2                !
 ! R21   R(10,41)                1.0941         estimate D2E/DX2                !
 ! R22   R(11,12)                1.322          estimate D2E/DX2                !
 ! R23   R(11,15)                1.5214         estimate D2E/DX2                !
 ! R24   R(12,13)                1.488          estimate D2E/DX2                !
 ! R25   R(13,14)                1.5398         estimate D2E/DX2                !
 ! R26   R(13,16)                1.5281         estimate D2E/DX2                !
 ! R27   R(13,37)                1.1104         estimate D2E/DX2                !
 ! R28   R(14,15)                1.5516         estimate D2E/DX2                !
 ! R29   R(14,49)                1.1061         estimate D2E/DX2                !
 ! R30   R(14,50)                1.1017         estimate D2E/DX2                !
 ! R31   R(15,51)                1.1085         estimate D2E/DX2                !
 ! R32   R(15,52)                1.1038         estimate D2E/DX2                !
 ! R33   R(16,17)                1.4892         estimate D2E/DX2                !
 ! R34   R(16,20)                1.5437         estimate D2E/DX2                !
 ! R35   R(16,38)                1.1098         estimate D2E/DX2                !
 ! R36   R(17,18)                1.322          estimate D2E/DX2                !
 ! R37   R(18,19)                1.5194         estimate D2E/DX2                !
 ! R38   R(18,27)                1.4253         estimate D2E/DX2                !
 ! R39   R(19,20)                1.5507         estimate D2E/DX2                !
 ! R40   R(19,45)                1.1037         estimate D2E/DX2                !
 ! R41   R(19,47)                1.1082         estimate D2E/DX2                !
 ! R42   R(20,42)                1.1057         estimate D2E/DX2                !
 ! R43   R(20,43)                1.1015         estimate D2E/DX2                !
 ! R44   R(21,22)                1.3957         estimate D2E/DX2                !
 ! R45   R(21,39)                1.0946         estimate D2E/DX2                !
 ! R46   R(22,23)                1.3672         estimate D2E/DX2                !
 ! R47   R(22,26)                1.5172         estimate D2E/DX2                !
 ! R48   R(23,24)                1.394          estimate D2E/DX2                !
 ! R49   R(24,25)                1.5207         estimate D2E/DX2                !
 ! R50   R(24,27)                1.3816         estimate D2E/DX2                !
 ! R51   R(25,26)                1.5423         estimate D2E/DX2                !
 ! R52   R(25,46)                1.1067         estimate D2E/DX2                !
 ! R53   R(25,53)                1.1028         estimate D2E/DX2                !
 ! R54   R(26,48)                1.1031         estimate D2E/DX2                !
 ! R55   R(26,55)                1.1071         estimate D2E/DX2                !
 ! R56   R(27,40)                1.0939         estimate D2E/DX2                !
 ! R57   R(28,29)                1.4248         estimate D2E/DX2                !
 ! R58   R(28,32)                1.3922         estimate D2E/DX2                !
 ! R59   R(28,36)                1.4035         estimate D2E/DX2                !
 ! R60   R(29,30)                1.4033         estimate D2E/DX2                !
 ! R61   R(29,33)                1.4084         estimate D2E/DX2                !
 ! R62   R(30,31)                1.33           estimate D2E/DX2                !
 ! R63   R(31,32)                1.3706         estimate D2E/DX2                !
 ! R64   R(31,58)                1.0903         estimate D2E/DX2                !
 ! R65   R(32,59)                1.0186         estimate D2E/DX2                !
 ! R66   R(33,34)                1.3993         estimate D2E/DX2                !
 ! R67   R(33,60)                1.0933         estimate D2E/DX2                !
 ! R68   R(34,35)                1.4171         estimate D2E/DX2                !
 ! R69   R(34,61)                1.0951         estimate D2E/DX2                !
 ! R70   R(35,36)                1.3995         estimate D2E/DX2                !
 ! R71   R(35,62)                1.0947         estimate D2E/DX2                !
 ! R72   R(36,63)                1.0947         estimate D2E/DX2                !
 ! A1    A(2,1,3)              104.3066         estimate D2E/DX2                !
 ! A2    A(2,1,4)              109.2264         estimate D2E/DX2                !
 ! A3    A(3,1,4)              105.6055         estimate D2E/DX2                !
 ! A4    A(1,4,5)               91.7521         estimate D2E/DX2                !
 ! A5    A(1,4,12)              83.7813         estimate D2E/DX2                !
 ! A6    A(1,4,17)              86.209          estimate D2E/DX2                !
 ! A7    A(1,4,23)              86.4636         estimate D2E/DX2                !
 ! A8    A(5,4,12)              90.9902         estimate D2E/DX2                !
 ! A9    A(5,4,23)              94.5519         estimate D2E/DX2                !
 ! A10   A(5,4,30)              89.5394         estimate D2E/DX2                !
 ! A11   A(12,4,17)             83.038          estimate D2E/DX2                !
 ! A12   A(12,4,30)             93.6473         estimate D2E/DX2                !
 ! A13   A(17,4,23)             91.1034         estimate D2E/DX2                !
 ! A14   A(17,4,30)             92.2468         estimate D2E/DX2                !
 ! A15   A(23,4,30)             95.9792         estimate D2E/DX2                !
 ! A16   A(4,5,6)              125.6113         estimate D2E/DX2                !
 ! A17   A(4,5,9)              124.8518         estimate D2E/DX2                !
 ! A18   A(6,5,9)              109.3453         estimate D2E/DX2                !
 ! A19   A(5,6,7)              111.1794         estimate D2E/DX2                !
 ! A20   A(5,6,10)             125.1961         estimate D2E/DX2                !
 ! A21   A(7,6,10)             123.6232         estimate D2E/DX2                !
 ! A22   A(6,7,8)              103.6062         estimate D2E/DX2                !
 ! A23   A(6,7,54)             110.2038         estimate D2E/DX2                !
 ! A24   A(6,7,56)             111.3724         estimate D2E/DX2                !
 ! A25   A(8,7,54)             112.1971         estimate D2E/DX2                !
 ! A26   A(8,7,56)             113.0402         estimate D2E/DX2                !
 ! A27   A(54,7,56)            106.5022         estimate D2E/DX2                !
 ! A28   A(7,8,9)              103.3181         estimate D2E/DX2                !
 ! A29   A(7,8,44)             112.5258         estimate D2E/DX2                !
 ! A30   A(7,8,57)             113.0503         estimate D2E/DX2                !
 ! A31   A(9,8,44)             110.2614         estimate D2E/DX2                !
 ! A32   A(9,8,57)             111.2984         estimate D2E/DX2                !
 ! A33   A(44,8,57)            106.4701         estimate D2E/DX2                !
 ! A34   A(5,9,8)              112.338          estimate D2E/DX2                !
 ! A35   A(5,9,21)             124.7063         estimate D2E/DX2                !
 ! A36   A(8,9,21)             122.9557         estimate D2E/DX2                !
 ! A37   A(6,10,11)            122.9835         estimate D2E/DX2                !
 ! A38   A(6,10,41)            118.3146         estimate D2E/DX2                !
 ! A39   A(11,10,41)           118.6323         estimate D2E/DX2                !
 ! A40   A(10,11,12)           121.7432         estimate D2E/DX2                !
 ! A41   A(10,11,15)           126.5586         estimate D2E/DX2                !
 ! A42   A(12,11,15)           111.6466         estimate D2E/DX2                !
 ! A43   A(4,12,11)            132.9173         estimate D2E/DX2                !
 ! A44   A(4,12,13)            116.6669         estimate D2E/DX2                !
 ! A45   A(11,12,13)           110.3174         estimate D2E/DX2                !
 ! A46   A(12,13,14)           103.666          estimate D2E/DX2                !
 ! A47   A(12,13,16)           105.1242         estimate D2E/DX2                !
 ! A48   A(12,13,37)           107.1679         estimate D2E/DX2                !
 ! A49   A(14,13,16)           121.2377         estimate D2E/DX2                !
 ! A50   A(14,13,37)           110.5819         estimate D2E/DX2                !
 ! A51   A(16,13,37)           108.0533         estimate D2E/DX2                !
 ! A52   A(13,14,15)           102.0602         estimate D2E/DX2                !
 ! A53   A(13,14,49)           109.8909         estimate D2E/DX2                !
 ! A54   A(13,14,50)           113.1951         estimate D2E/DX2                !
 ! A55   A(15,14,49)           110.1043         estimate D2E/DX2                !
 ! A56   A(15,14,50)           113.2348         estimate D2E/DX2                !
 ! A57   A(49,14,50)           108.2475         estimate D2E/DX2                !
 ! A58   A(11,15,14)           102.1731         estimate D2E/DX2                !
 ! A59   A(11,15,51)           109.9063         estimate D2E/DX2                !
 ! A60   A(11,15,52)           112.5628         estimate D2E/DX2                !
 ! A61   A(14,15,51)           111.5365         estimate D2E/DX2                !
 ! A62   A(14,15,52)           113.8176         estimate D2E/DX2                !
 ! A63   A(51,15,52)           106.875          estimate D2E/DX2                !
 ! A64   A(13,16,17)           104.0768         estimate D2E/DX2                !
 ! A65   A(13,16,20)           118.9331         estimate D2E/DX2                !
 ! A66   A(13,16,38)           109.2749         estimate D2E/DX2                !
 ! A67   A(17,16,20)           104.3123         estimate D2E/DX2                !
 ! A68   A(17,16,38)           107.8655         estimate D2E/DX2                !
 ! A69   A(20,16,38)           111.48           estimate D2E/DX2                !
 ! A70   A(4,17,16)            116.3854         estimate D2E/DX2                !
 ! A71   A(4,17,18)            132.5041         estimate D2E/DX2                !
 ! A72   A(16,17,18)           111.0424         estimate D2E/DX2                !
 ! A73   A(17,18,19)           111.9366         estimate D2E/DX2                !
 ! A74   A(17,18,27)           121.8774         estimate D2E/DX2                !
 ! A75   A(19,18,27)           126.1595         estimate D2E/DX2                !
 ! A76   A(18,19,20)           102.4413         estimate D2E/DX2                !
 ! A77   A(18,19,45)           112.546          estimate D2E/DX2                !
 ! A78   A(18,19,47)           109.6473         estimate D2E/DX2                !
 ! A79   A(20,19,45)           113.5882         estimate D2E/DX2                !
 ! A80   A(20,19,47)           111.7713         estimate D2E/DX2                !
 ! A81   A(45,19,47)           106.8776         estimate D2E/DX2                !
 ! A82   A(16,20,19)           103.1591         estimate D2E/DX2                !
 ! A83   A(16,20,42)           109.7312         estimate D2E/DX2                !
 ! A84   A(16,20,43)           112.8988         estimate D2E/DX2                !
 ! A85   A(19,20,42)           109.9291         estimate D2E/DX2                !
 ! A86   A(19,20,43)           113.1089         estimate D2E/DX2                !
 ! A87   A(42,20,43)           107.9475         estimate D2E/DX2                !
 ! A88   A(9,21,22)            125.5661         estimate D2E/DX2                !
 ! A89   A(9,21,39)            117.168          estimate D2E/DX2                !
 ! A90   A(22,21,39)           117.2356         estimate D2E/DX2                !
 ! A91   A(21,22,23)           124.4669         estimate D2E/DX2                !
 ! A92   A(21,22,26)           123.529          estimate D2E/DX2                !
 ! A93   A(23,22,26)           112.0032         estimate D2E/DX2                !
 ! A94   A(4,23,22)            125.187          estimate D2E/DX2                !
 ! A95   A(4,23,24)            125.5185         estimate D2E/DX2                !
 ! A96   A(22,23,24)           109.1962         estimate D2E/DX2                !
 ! A97   A(23,24,25)           110.9483         estimate D2E/DX2                !
 ! A98   A(23,24,27)           125.0916         estimate D2E/DX2                !
 ! A99   A(25,24,27)           123.9561         estimate D2E/DX2                !
 ! A100  A(24,25,26)           103.1857         estimate D2E/DX2                !
 ! A101  A(24,25,46)           110.0433         estimate D2E/DX2                !
 ! A102  A(24,25,53)           111.8162         estimate D2E/DX2                !
 ! A103  A(26,25,46)           111.4327         estimate D2E/DX2                !
 ! A104  A(26,25,53)           113.6621         estimate D2E/DX2                !
 ! A105  A(46,25,53)           106.7498         estimate D2E/DX2                !
 ! A106  A(22,26,25)           102.8358         estimate D2E/DX2                !
 ! A107  A(22,26,48)           112.2079         estimate D2E/DX2                !
 ! A108  A(22,26,55)           109.6178         estimate D2E/DX2                !
 ! A109  A(25,26,48)           113.7212         estimate D2E/DX2                !
 ! A110  A(25,26,55)           111.6168         estimate D2E/DX2                !
 ! A111  A(48,26,55)           106.8658         estimate D2E/DX2                !
 ! A112  A(18,27,24)           123.081          estimate D2E/DX2                !
 ! A113  A(18,27,40)           118.5255         estimate D2E/DX2                !
 ! A114  A(24,27,40)           118.3856         estimate D2E/DX2                !
 ! A115  A(29,28,32)           104.8178         estimate D2E/DX2                !
 ! A116  A(29,28,36)           122.8861         estimate D2E/DX2                !
 ! A117  A(32,28,36)           132.296          estimate D2E/DX2                !
 ! A118  A(28,29,30)           109.4307         estimate D2E/DX2                !
 ! A119  A(28,29,33)           119.6348         estimate D2E/DX2                !
 ! A120  A(30,29,33)           130.9344         estimate D2E/DX2                !
 ! A121  A(4,30,29)            132.9382         estimate D2E/DX2                !
 ! A122  A(4,30,31)            121.6706         estimate D2E/DX2                !
 ! A123  A(29,30,31)           105.3823         estimate D2E/DX2                !
 ! A124  A(30,31,32)           112.6713         estimate D2E/DX2                !
 ! A125  A(30,31,58)           124.7525         estimate D2E/DX2                !
 ! A126  A(32,31,58)           122.5762         estimate D2E/DX2                !
 ! A127  A(28,32,31)           107.6978         estimate D2E/DX2                !
 ! A128  A(28,32,59)           126.5011         estimate D2E/DX2                !
 ! A129  A(31,32,59)           125.8009         estimate D2E/DX2                !
 ! A130  A(29,33,34)           117.7815         estimate D2E/DX2                !
 ! A131  A(29,33,60)           120.9212         estimate D2E/DX2                !
 ! A132  A(34,33,60)           121.2973         estimate D2E/DX2                !
 ! A133  A(33,34,35)           121.7678         estimate D2E/DX2                !
 ! A134  A(33,34,61)           119.2901         estimate D2E/DX2                !
 ! A135  A(35,34,61)           118.942          estimate D2E/DX2                !
 ! A136  A(34,35,36)           121.4307         estimate D2E/DX2                !
 ! A137  A(34,35,62)           119.3681         estimate D2E/DX2                !
 ! A138  A(36,35,62)           119.2013         estimate D2E/DX2                !
 ! A139  A(28,36,35)           116.4991         estimate D2E/DX2                !
 ! A140  A(28,36,63)           122.006          estimate D2E/DX2                !
 ! A141  A(35,36,63)           121.495          estimate D2E/DX2                !
 ! A142  L(1,4,30,5,-1)        181.2915         estimate D2E/DX2                !
 ! A143  L(5,4,17,1,-1)        177.9611         estimate D2E/DX2                !
 ! A144  L(12,4,23,1,-1)       170.245          estimate D2E/DX2                !
 ! A145  L(1,4,30,5,-2)        177.448          estimate D2E/DX2                !
 ! A146  L(5,4,17,1,-2)        185.7967         estimate D2E/DX2                !
 ! A147  L(12,4,23,1,-2)       185.2596         estimate D2E/DX2                !
 ! D1    D(2,1,4,5)             15.1224         estimate D2E/DX2                !
 ! D2    D(2,1,4,12)           105.9279         estimate D2E/DX2                !
 ! D3    D(2,1,4,17)          -170.6743         estimate D2E/DX2                !
 ! D4    D(2,1,4,23)           -79.3317         estimate D2E/DX2                !
 ! D5    D(3,1,4,5)            126.7846         estimate D2E/DX2                !
 ! D6    D(3,1,4,12)          -142.4099         estimate D2E/DX2                !
 ! D7    D(3,1,4,17)           -59.0121         estimate D2E/DX2                !
 ! D8    D(3,1,4,23)            32.3305         estimate D2E/DX2                !
 ! D9    D(2,1,30,29)         -121.902          estimate D2E/DX2                !
 ! D10   D(2,1,30,31)           61.5995         estimate D2E/DX2                !
 ! D11   D(3,1,30,29)           -9.5417         estimate D2E/DX2                !
 ! D12   D(3,1,30,31)          173.9598         estimate D2E/DX2                !
 ! D13   D(1,4,5,6)             90.4764         estimate D2E/DX2                !
 ! D14   D(1,4,5,9)            -95.0962         estimate D2E/DX2                !
 ! D15   D(12,4,5,6)             6.6684         estimate D2E/DX2                !
 ! D16   D(12,4,5,9)          -178.9041         estimate D2E/DX2                !
 ! D17   D(23,4,5,6)           177.067          estimate D2E/DX2                !
 ! D18   D(23,4,5,9)            -8.5056         estimate D2E/DX2                !
 ! D19   D(30,4,5,6)           -86.9716         estimate D2E/DX2                !
 ! D20   D(30,4,5,9)            87.4559         estimate D2E/DX2                !
 ! D21   D(6,5,17,16)           -8.87           estimate D2E/DX2                !
 ! D22   D(6,5,17,18)          165.4788         estimate D2E/DX2                !
 ! D23   D(9,5,17,16)          166.8097         estimate D2E/DX2                !
 ! D24   D(9,5,17,18)          -18.8416         estimate D2E/DX2                !
 ! D25   D(1,4,12,11)          -99.2434         estimate D2E/DX2                !
 ! D26   D(1,4,12,13)           76.7367         estimate D2E/DX2                !
 ! D27   D(5,4,12,11)           -7.5887         estimate D2E/DX2                !
 ! D28   D(5,4,12,13)          168.3915         estimate D2E/DX2                !
 ! D29   D(17,4,12,11)         173.8347         estimate D2E/DX2                !
 ! D30   D(17,4,12,13)         -10.1852         estimate D2E/DX2                !
 ! D31   D(30,4,12,11)          82.0128         estimate D2E/DX2                !
 ! D32   D(30,4,12,13)        -102.007          estimate D2E/DX2                !
 ! D33   D(11,12,23,22)          0.7085         estimate D2E/DX2                !
 ! D34   D(11,12,23,24)       -169.3049         estimate D2E/DX2                !
 ! D35   D(13,12,23,22)        170.2479         estimate D2E/DX2                !
 ! D36   D(13,12,23,24)          0.2345         estimate D2E/DX2                !
 ! D37   D(1,4,17,16)          -99.6336         estimate D2E/DX2                !
 ! D38   D(1,4,17,18)           77.0438         estimate D2E/DX2                !
 ! D39   D(12,4,17,16)         -15.4462         estimate D2E/DX2                !
 ! D40   D(12,4,17,18)         161.2311         estimate D2E/DX2                !
 ! D41   D(23,4,17,16)         173.9845         estimate D2E/DX2                !
 ! D42   D(23,4,17,18)          -9.3382         estimate D2E/DX2                !
 ! D43   D(30,4,17,16)          77.956          estimate D2E/DX2                !
 ! D44   D(30,4,17,18)        -105.3666         estimate D2E/DX2                !
 ! D45   D(1,4,23,22)           98.8614         estimate D2E/DX2                !
 ! D46   D(1,4,23,24)          -77.1411         estimate D2E/DX2                !
 ! D47   D(5,4,23,22)            7.3824         estimate D2E/DX2                !
 ! D48   D(5,4,23,24)         -168.62           estimate D2E/DX2                !
 ! D49   D(17,4,23,22)        -175.0059         estimate D2E/DX2                !
 ! D50   D(17,4,23,24)           8.9916         estimate D2E/DX2                !
 ! D51   D(30,4,23,22)         -82.6307         estimate D2E/DX2                !
 ! D52   D(30,4,23,24)         101.3668         estimate D2E/DX2                !
 ! D53   D(5,4,30,29)         -135.2541         estimate D2E/DX2                !
 ! D54   D(5,4,30,31)           46.0064         estimate D2E/DX2                !
 ! D55   D(12,4,30,29)         133.7831         estimate D2E/DX2                !
 ! D56   D(12,4,30,31)         -44.9564         estimate D2E/DX2                !
 ! D57   D(17,4,30,29)          50.6203         estimate D2E/DX2                !
 ! D58   D(17,4,30,31)        -128.1192         estimate D2E/DX2                !
 ! D59   D(23,4,30,29)         -40.7255         estimate D2E/DX2                !
 ! D60   D(23,4,30,31)         140.535          estimate D2E/DX2                !
 ! D61   D(4,5,6,7)            177.4956         estimate D2E/DX2                !
 ! D62   D(4,5,6,10)            -2.903          estimate D2E/DX2                !
 ! D63   D(9,5,6,7)              2.3404         estimate D2E/DX2                !
 ! D64   D(9,5,6,10)          -178.0581         estimate D2E/DX2                !
 ! D65   D(4,5,9,8)           -174.4186         estimate D2E/DX2                !
 ! D66   D(4,5,9,21)             5.5288         estimate D2E/DX2                !
 ! D67   D(6,5,9,8)              0.7818         estimate D2E/DX2                !
 ! D68   D(6,5,9,21)          -179.2708         estimate D2E/DX2                !
 ! D69   D(5,6,7,8)             -4.3242         estimate D2E/DX2                !
 ! D70   D(5,6,7,54)           115.8917         estimate D2E/DX2                !
 ! D71   D(5,6,7,56)          -126.1362         estimate D2E/DX2                !
 ! D72   D(10,6,7,8)           176.0669         estimate D2E/DX2                !
 ! D73   D(10,6,7,54)          -63.7172         estimate D2E/DX2                !
 ! D74   D(10,6,7,56)           54.2549         estimate D2E/DX2                !
 ! D75   D(5,6,10,11)           -3.44           estimate D2E/DX2                !
 ! D76   D(5,6,10,41)          179.6384         estimate D2E/DX2                !
 ! D77   D(7,6,10,11)          176.1138         estimate D2E/DX2                !
 ! D78   D(7,6,10,41)           -0.8079         estimate D2E/DX2                !
 ! D79   D(6,7,8,9)              4.3653         estimate D2E/DX2                !
 ! D80   D(6,7,8,44)          -114.5454         estimate D2E/DX2                !
 ! D81   D(6,7,8,57)           124.7881         estimate D2E/DX2                !
 ! D82   D(54,7,8,9)          -114.4858         estimate D2E/DX2                !
 ! D83   D(54,7,8,44)          126.6035         estimate D2E/DX2                !
 ! D84   D(54,7,8,57)            5.937          estimate D2E/DX2                !
 ! D85   D(56,7,8,9)           125.0553         estimate D2E/DX2                !
 ! D86   D(56,7,8,44)            6.1446         estimate D2E/DX2                !
 ! D87   D(56,7,8,57)         -114.5218         estimate D2E/DX2                !
 ! D88   D(7,8,9,5)             -3.4121         estimate D2E/DX2                !
 ! D89   D(7,8,9,21)           176.6395         estimate D2E/DX2                !
 ! D90   D(44,8,9,5)           117.0548         estimate D2E/DX2                !
 ! D91   D(44,8,9,21)          -62.8937         estimate D2E/DX2                !
 ! D92   D(57,8,9,5)          -125.0225         estimate D2E/DX2                !
 ! D93   D(57,8,9,21)           55.029          estimate D2E/DX2                !
 ! D94   D(5,9,21,22)            1.7443         estimate D2E/DX2                !
 ! D95   D(5,9,21,39)          179.6794         estimate D2E/DX2                !
 ! D96   D(8,9,21,22)         -178.3137         estimate D2E/DX2                !
 ! D97   D(8,9,21,39)           -0.3786         estimate D2E/DX2                !
 ! D98   D(6,10,11,12)           3.2047         estimate D2E/DX2                !
 ! D99   D(6,10,11,15)        -173.9572         estimate D2E/DX2                !
 ! D100  D(41,10,11,12)       -179.883          estimate D2E/DX2                !
 ! D101  D(41,10,11,15)          2.9551         estimate D2E/DX2                !
 ! D102  D(10,11,12,4)           3.9507         estimate D2E/DX2                !
 ! D103  D(10,11,12,13)       -172.219          estimate D2E/DX2                !
 ! D104  D(15,11,12,4)        -178.5017         estimate D2E/DX2                !
 ! D105  D(15,11,12,13)          5.3286         estimate D2E/DX2                !
 ! D106  D(10,11,15,14)       -167.6006         estimate D2E/DX2                !
 ! D107  D(10,11,15,51)         73.876          estimate D2E/DX2                !
 ! D108  D(10,11,15,52)        -45.122          estimate D2E/DX2                !
 ! D109  D(12,11,15,14)         14.9959         estimate D2E/DX2                !
 ! D110  D(12,11,15,51)       -103.5274         estimate D2E/DX2                !
 ! D111  D(12,11,15,52)        137.4745         estimate D2E/DX2                !
 ! D112  D(4,12,13,14)         159.4753         estimate D2E/DX2                !
 ! D113  D(4,12,13,16)          31.264          estimate D2E/DX2                !
 ! D114  D(4,12,13,37)         -83.5384         estimate D2E/DX2                !
 ! D115  D(11,12,13,14)        -23.6629         estimate D2E/DX2                !
 ! D116  D(11,12,13,16)       -151.8742         estimate D2E/DX2                !
 ! D117  D(11,12,13,37)         93.3234         estimate D2E/DX2                !
 ! D118  D(12,13,14,15)         31.1431         estimate D2E/DX2                !
 ! D119  D(12,13,14,49)        -85.6706         estimate D2E/DX2                !
 ! D120  D(12,13,14,50)        153.1776         estimate D2E/DX2                !
 ! D121  D(16,13,14,15)        148.628          estimate D2E/DX2                !
 ! D122  D(16,13,14,49)         31.8144         estimate D2E/DX2                !
 ! D123  D(16,13,14,50)        -89.3375         estimate D2E/DX2                !
 ! D124  D(37,13,14,15)        -83.426          estimate D2E/DX2                !
 ! D125  D(37,13,14,49)        159.7604         estimate D2E/DX2                !
 ! D126  D(37,13,14,50)         38.6085         estimate D2E/DX2                !
 ! D127  D(12,13,16,17)        -38.7226         estimate D2E/DX2                !
 ! D128  D(12,13,16,20)       -154.1787         estimate D2E/DX2                !
 ! D129  D(12,13,16,38)         76.2859         estimate D2E/DX2                !
 ! D130  D(14,13,16,17)       -155.4767         estimate D2E/DX2                !
 ! D131  D(14,13,16,20)         89.0672         estimate D2E/DX2                !
 ! D132  D(14,13,16,38)        -40.4682         estimate D2E/DX2                !
 ! D133  D(37,13,16,17)         75.4629         estimate D2E/DX2                !
 ! D134  D(37,13,16,20)        -39.9932         estimate D2E/DX2                !
 ! D135  D(37,13,16,38)       -169.5286         estimate D2E/DX2                !
 ! D136  D(13,14,15,11)        -27.7014         estimate D2E/DX2                !
 ! D137  D(13,14,15,51)         89.6592         estimate D2E/DX2                !
 ! D138  D(13,14,15,52)       -149.3214         estimate D2E/DX2                !
 ! D139  D(49,14,15,11)         88.9581         estimate D2E/DX2                !
 ! D140  D(49,14,15,51)       -153.6813         estimate D2E/DX2                !
 ! D141  D(49,14,15,52)        -32.6619         estimate D2E/DX2                !
 ! D142  D(50,14,15,11)       -149.7086         estimate D2E/DX2                !
 ! D143  D(50,14,15,51)        -32.348          estimate D2E/DX2                !
 ! D144  D(50,14,15,52)         88.6714         estimate D2E/DX2                !
 ! D145  D(13,16,17,4)          35.1523         estimate D2E/DX2                !
 ! D146  D(13,16,17,18)       -142.2237         estimate D2E/DX2                !
 ! D147  D(20,16,17,4)         160.5125         estimate D2E/DX2                !
 ! D148  D(20,16,17,18)        -16.8635         estimate D2E/DX2                !
 ! D149  D(38,16,17,4)         -80.8487         estimate D2E/DX2                !
 ! D150  D(38,16,17,18)        101.7753         estimate D2E/DX2                !
 ! D151  D(13,16,20,19)        140.7792         estimate D2E/DX2                !
 ! D152  D(13,16,20,42)         23.6668         estimate D2E/DX2                !
 ! D153  D(13,16,20,43)        -96.7888         estimate D2E/DX2                !
 ! D154  D(17,16,20,19)         25.4486         estimate D2E/DX2                !
 ! D155  D(17,16,20,42)        -91.6638         estimate D2E/DX2                !
 ! D156  D(17,16,20,43)        147.8806         estimate D2E/DX2                !
 ! D157  D(38,16,20,19)        -90.6959         estimate D2E/DX2                !
 ! D158  D(38,16,20,42)        152.1917         estimate D2E/DX2                !
 ! D159  D(38,16,20,43)         31.7362         estimate D2E/DX2                !
 ! D160  D(4,17,18,19)        -176.4054         estimate D2E/DX2                !
 ! D161  D(4,17,18,27)           5.3562         estimate D2E/DX2                !
 ! D162  D(16,17,18,19)          0.4056         estimate D2E/DX2                !
 ! D163  D(16,17,18,27)       -177.8329         estimate D2E/DX2                !
 ! D164  D(17,18,19,20)         16.0199         estimate D2E/DX2                !
 ! D165  D(17,18,19,45)        138.3831         estimate D2E/DX2                !
 ! D166  D(17,18,19,47)       -102.8006         estimate D2E/DX2                !
 ! D167  D(27,18,19,20)       -165.8329         estimate D2E/DX2                !
 ! D168  D(27,18,19,45)        -43.4697         estimate D2E/DX2                !
 ! D169  D(27,18,19,47)         75.3466         estimate D2E/DX2                !
 ! D170  D(17,18,27,24)          2.1408         estimate D2E/DX2                !
 ! D171  D(17,18,27,40)       -178.8959         estimate D2E/DX2                !
 ! D172  D(19,18,27,24)       -175.8353         estimate D2E/DX2                !
 ! D173  D(19,18,27,40)          3.1281         estimate D2E/DX2                !
 ! D174  D(18,19,20,16)        -24.6965         estimate D2E/DX2                !
 ! D175  D(18,19,20,42)         92.2761         estimate D2E/DX2                !
 ! D176  D(18,19,20,43)       -146.9878         estimate D2E/DX2                !
 ! D177  D(45,19,20,16)       -146.3497         estimate D2E/DX2                !
 ! D178  D(45,19,20,42)        -29.3771         estimate D2E/DX2                !
 ! D179  D(45,19,20,43)         91.3591         estimate D2E/DX2                !
 ! D180  D(47,19,20,16)         92.618          estimate D2E/DX2                !
 ! D181  D(47,19,20,42)       -150.4094         estimate D2E/DX2                !
 ! D182  D(47,19,20,43)        -29.6733         estimate D2E/DX2                !
 ! D183  D(9,21,22,23)          -3.0522         estimate D2E/DX2                !
 ! D184  D(9,21,22,26)         176.5821         estimate D2E/DX2                !
 ! D185  D(39,21,22,23)        179.014          estimate D2E/DX2                !
 ! D186  D(39,21,22,26)         -1.3517         estimate D2E/DX2                !
 ! D187  D(21,22,23,4)          -3.1112         estimate D2E/DX2                !
 ! D188  D(21,22,23,24)        173.4442         estimate D2E/DX2                !
 ! D189  D(26,22,23,4)         177.2176         estimate D2E/DX2                !
 ! D190  D(26,22,23,24)         -6.227          estimate D2E/DX2                !
 ! D191  D(21,22,26,25)       -167.2812         estimate D2E/DX2                !
 ! D192  D(21,22,26,48)        -44.6875         estimate D2E/DX2                !
 ! D193  D(21,22,26,55)         73.8807         estimate D2E/DX2                !
 ! D194  D(23,22,26,25)         12.3936         estimate D2E/DX2                !
 ! D195  D(23,22,26,48)        134.9873         estimate D2E/DX2                !
 ! D196  D(23,22,26,55)       -106.4445         estimate D2E/DX2                !
 ! D197  D(4,23,24,25)         173.5498         estimate D2E/DX2                !
 ! D198  D(4,23,24,27)          -5.741          estimate D2E/DX2                !
 ! D199  D(22,23,24,25)         -2.9914         estimate D2E/DX2                !
 ! D200  D(22,23,24,27)        177.7178         estimate D2E/DX2                !
 ! D201  D(23,24,25,26)         10.427          estimate D2E/DX2                !
 ! D202  D(23,24,25,46)       -108.5837         estimate D2E/DX2                !
 ! D203  D(23,24,25,53)        132.9606         estimate D2E/DX2                !
 ! D204  D(27,24,25,26)       -170.2726         estimate D2E/DX2                !
 ! D205  D(27,24,25,46)         70.7167         estimate D2E/DX2                !
 ! D206  D(27,24,25,53)        -47.739          estimate D2E/DX2                !
 ! D207  D(23,24,27,18)         -1.5534         estimate D2E/DX2                !
 ! D208  D(23,24,27,40)        179.4819         estimate D2E/DX2                !
 ! D209  D(25,24,27,18)        179.2451         estimate D2E/DX2                !
 ! D210  D(25,24,27,40)          0.2804         estimate D2E/DX2                !
 ! D211  D(24,25,26,22)        -12.8403         estimate D2E/DX2                !
 ! D212  D(24,25,26,48)       -134.411          estimate D2E/DX2                !
 ! D213  D(24,25,26,55)        104.5913         estimate D2E/DX2                !
 ! D214  D(46,25,26,22)        105.2025         estimate D2E/DX2                !
 ! D215  D(46,25,26,48)        -16.3682         estimate D2E/DX2                !
 ! D216  D(46,25,26,55)       -137.3659         estimate D2E/DX2                !
 ! D217  D(53,25,26,22)       -134.1315         estimate D2E/DX2                !
 ! D218  D(53,25,26,48)        104.2978         estimate D2E/DX2                !
 ! D219  D(53,25,26,55)        -16.6999         estimate D2E/DX2                !
 ! D220  D(32,28,29,30)          0.0073         estimate D2E/DX2                !
 ! D221  D(32,28,29,33)       -179.9014         estimate D2E/DX2                !
 ! D222  D(36,28,29,30)        179.9106         estimate D2E/DX2                !
 ! D223  D(36,28,29,33)          0.002          estimate D2E/DX2                !
 ! D224  D(29,28,32,31)          0.0484         estimate D2E/DX2                !
 ! D225  D(29,28,32,59)        179.9104         estimate D2E/DX2                !
 ! D226  D(36,28,32,31)       -179.8418         estimate D2E/DX2                !
 ! D227  D(36,28,32,59)          0.0201         estimate D2E/DX2                !
 ! D228  D(29,28,36,35)         -0.032          estimate D2E/DX2                !
 ! D229  D(29,28,36,63)        179.9784         estimate D2E/DX2                !
 ! D230  D(32,28,36,35)        179.8416         estimate D2E/DX2                !
 ! D231  D(32,28,36,63)         -0.148          estimate D2E/DX2                !
 ! D232  D(28,29,30,4)        -178.9485         estimate D2E/DX2                !
 ! D233  D(28,29,30,31)         -0.0612         estimate D2E/DX2                !
 ! D234  D(33,29,30,4)           0.9464         estimate D2E/DX2                !
 ! D235  D(33,29,30,31)        179.8338         estimate D2E/DX2                !
 ! D236  D(28,29,33,34)          0.0384         estimate D2E/DX2                !
 ! D237  D(28,29,33,60)       -179.9813         estimate D2E/DX2                !
 ! D238  D(30,29,33,34)       -179.8476         estimate D2E/DX2                !
 ! D239  D(30,29,33,60)          0.1326         estimate D2E/DX2                !
 ! D240  D(4,30,31,32)         179.138          estimate D2E/DX2                !
 ! D241  D(4,30,31,58)          -0.8979         estimate D2E/DX2                !
 ! D242  D(29,30,31,32)          0.0951         estimate D2E/DX2                !
 ! D243  D(29,30,31,58)       -179.9409         estimate D2E/DX2                !
 ! D244  D(30,31,32,28)         -0.0934         estimate D2E/DX2                !
 ! D245  D(30,31,32,59)       -179.9566         estimate D2E/DX2                !
 ! D246  D(58,31,32,28)        179.9417         estimate D2E/DX2                !
 ! D247  D(58,31,32,59)          0.0785         estimate D2E/DX2                !
 ! D248  D(29,33,34,35)         -0.049          estimate D2E/DX2                !
 ! D249  D(29,33,34,61)        179.9609         estimate D2E/DX2                !
 ! D250  D(60,33,34,35)        179.9708         estimate D2E/DX2                !
 ! D251  D(60,33,34,61)         -0.0193         estimate D2E/DX2                !
 ! D252  D(33,34,35,36)          0.0189         estimate D2E/DX2                !
 ! D253  D(33,34,35,62)       -179.9684         estimate D2E/DX2                !
 ! D254  D(61,34,35,36)       -179.991          estimate D2E/DX2                !
 ! D255  D(61,34,35,62)          0.0217         estimate D2E/DX2                !
 ! D256  D(34,35,36,28)          0.0217         estimate D2E/DX2                !
 ! D257  D(34,35,36,63)       -179.9886         estimate D2E/DX2                !
 ! D258  D(62,35,36,28)       -179.991          estimate D2E/DX2                !
 ! D259  D(62,35,36,63)         -0.0013         estimate D2E/DX2                !
 --------------------------------------------------------------------------------
 Trust Radius=3.00D-01 FncErr=1.00D-07 GrdErr=1.00D-06
 Number of steps in this run=    378 maximum allowed number of steps=    378.
 GradGradGradGradGradGradGradGradGradGradGradGradGradGradGradGradGradGrad

 Stoichiometry    C26H29CoN6O(1+,2)
 Framework group  C1[X(C26H29CoN6O)]
 Deg. of freedom   183
 Full point group                 C1      NOp   1
 Largest Abelian subgroup         C1      NOp   1
 Largest concise Abelian subgroup C1      NOp   1
                         Standard orientation:                         
 ---------------------------------------------------------------------
 Center     Atomic      Atomic             Coordinates (Angstroms)
 Number     Number       Type             X           Y           Z
 ---------------------------------------------------------------------
      1          8           0        1.933313    0.361443   -2.588363
      2          1           0        2.466724   -0.441392   -2.763356
      3          1           0        1.287521    0.388310   -3.324718
      4         27           0        0.572822    0.012447   -0.510056
      5          7           0        1.637766   -1.513862    0.002001
      6          6           0        2.781464   -1.475372    0.798474
      7          6           0        3.326320   -2.873763    1.045605
      8          6           0        2.284388   -3.792883    0.375399
      9          6           0        1.321850   -2.814971   -0.274237
     10          6           0        3.364459   -0.327142    1.300286
     11          6           0        2.889886    0.980824    0.994719
     12          7           0        1.812661    1.174263    0.253133
     13          6           0        1.654456    2.620122   -0.060996
     14          6           0        2.423325    3.324786    1.071853
     15          6           0        3.540329    2.297028    1.393697
     16          6           0        0.151630    2.825794   -0.246090
     17          7           0       -0.296453    1.598961   -0.961473
     18          6           0       -1.226348    1.884434   -1.856688
     19          6           0       -1.545574    3.369545   -1.889715
     20          6           0       -0.339100    3.987429   -1.136461
     21          6           0        0.241367   -3.221281   -1.060615
     22          6           0       -0.655547   -2.371223   -1.709346
     23          7           0       -0.634868   -1.007452   -1.615494
     24          6           0       -1.568826   -0.472818   -2.501580
     25          6           0       -2.234782   -1.570077   -3.317010
     26          6           0       -1.770291   -2.861914   -2.614107
     27          6           0       -1.850865    0.872353   -2.642218
     28          6           0       -2.167055   -0.323167    3.028324
     29          6           0       -1.961706   -0.147584    1.629396
     30          7           0       -0.587433   -0.195571    1.349653
     31          6           0        0.005171   -0.389322    2.524439
     32          7           0       -0.889082   -0.474190    3.559596
     33          6           0       -3.070214    0.037770    0.780687
     34          6           0       -4.343163    0.041594    1.361821
     35          6           0       -4.527467   -0.134871    2.755731
     36          6           0       -3.440806   -0.321288    3.617736
     37          1           0        2.149287    2.799149   -1.038795
     38          1           0       -0.341448    2.839456    0.748063
     39          1           0        0.105911   -4.297680   -1.206065
     40          1           0       -2.600826    1.172109   -3.380036
     41          1           0        4.260234   -0.428297    1.920374
     42          1           0        0.452338    4.265845   -1.856603
     43          1           0       -0.604625    4.887247   -0.559256
     44          1           0        1.749600   -4.429360    1.104596
     45          1           0       -1.668235    3.753278   -2.917254
     46          1           0       -1.882041   -1.530812   -4.365279
     47          1           0       -2.500758    3.557233   -1.360000
     48          1           0       -1.427940   -3.646893   -3.309352
     49          1           0        1.763244    3.456243    1.949600
     50          1           0        2.812972    4.313663    0.782076
     51          1           0        4.444932    2.472963    0.777715
     52          1           0        3.864334    2.306624    2.448865
     53          1           0       -3.330818   -1.451430   -3.345833
     54          1           0        4.328772   -2.978543    0.591959
     55          1           0       -2.578267   -3.305825   -2.001163
     56          1           0        3.447974   -3.073272    2.124542
     57          1           0        2.726961   -4.476009   -0.371150
     58          1           0        1.082240   -0.474818    2.670637
     59          1           0       -0.653716   -0.619534    4.539951
     60          1           0       -2.936937    0.174163   -0.295855
     61          1           0       -5.222435    0.184402    0.724906
     62          1           0       -5.541266   -0.125611    3.168639
     63          1           0       -3.581981   -0.457893    4.694680
 ---------------------------------------------------------------------
 Rotational constants (GHZ):      0.1448208      0.1283112      0.1230067
 Standard basis: 6-31G(d) (6D, 7F)
 There are   592 symmetry adapted cartesian basis functions of A   symmetry.
 There are   589 symmetry adapted basis functions of A   symmetry.
   589 basis functions,  1144 primitive gaussians,   592 cartesian basis functions
   131 alpha electrons      130 beta electrons
       nuclear repulsion energy      4587.2278936199 Hartrees.
 NAtoms=   63 NActive=   63 NUniq=   63 SFac= 1.00D+00 NAtFMM=   60 NAOKFM=T Big=T
 Integral buffers will be    131072 words long.
 Raffenetti 2 integral format.
 Two-electron integral symmetry is turned on.
 One-electron integrals computed using PRISM.
 NBasis=   589 RedAO= T EigKep=  3.66D-04  NBF=   589
 NBsUse=   589 1.00D-06 EigRej= -1.00D+00 NBFU=   589
 ExpMin= 4.30D-02 ExpMax= 6.61D+04 ExpMxC= 9.93D+03 IAcc=3 IRadAn=         5 AccDes= 0.00D+00
 Harris functional with IExCor= 1009 and IRadAn=       5 diagonalized for initial guess.
 HarFok:  IExCor= 1009 AccDes= 0.00D+00 IRadAn=         5 IDoV= 1 UseB2=F ITyADJ=14
 ICtDFT=  3500011 ScaDFX=  1.000000  1.000000  1.000000  1.000000
 FoFCou: FMM=F IPFlag=           0 FMFlag=      100000 FMFlg1=        2001
         NFxFlg=           0 DoJE=T BraDBF=F KetDBF=T FulRan=T
         wScrn=  0.000000 ICntrl=     500 IOpCl=  0 I1Cent=   200000004 NGrid=           0
         NMat0=    1 NMatS0=      1 NMatT0=    0 NMatD0=    1 NMtDS0=    0 NMtDT0=    0
 Petite list used in FoFCou.
 Initial guess <Sx>= 0.0000 <Sy>= 0.0000 <Sz>= 0.5000 <S**2>= 0.7500 S= 0.5000
 Requested convergence on RMS density matrix=1.00D-08 within 128 cycles.
 Requested convergence on MAX density matrix=1.00D-06.
 Requested convergence on             energy=1.00D-06.
 No special actions if energy rises.
 EnCoef did   100 forward-backward iterations
 EnCoef did   100 forward-backward iterations
 EnCoef did     4 forward-backward iterations
 EnCoef did     5 forward-backward iterations
 EnCoef did     3 forward-backward iterations
 Restarting incremental Fock formation.
 SCF Done:  E(UTPSS-TPSS) =  -2794.87887256     A.U. after   24 cycles
            NFock= 24  Conv=0.72D-08     -V/T= 2.0053
 <Sx>= 0.0000 <Sy>= 0.0000 <Sz>= 0.5000 <S**2>= 0.7656 S= 0.5078
 <L.S>= 0.000000000000E+00
 Annihilation of the first spin contaminant:
 S**2 before annihilation     0.7656,   after     0.7502

 **********************************************************************

            Population analysis using the SCF density.

 **********************************************************************

 Orbital symmetries:
 Alpha Orbitals:
       Occupied  (A) (A) (A) (A) (A) (A) (A) (A) (A) (A) (A) (A)
                 (A) (A) (A) (A) (A) (A) (A) (A) (A) (A) (A) (A)
                 (A) (A) (A) (A) (A) (A) (A) (A) (A) (A) (A) (A)
                 (A) (A) (A) (A) (A) (A) (A) (A) (A) (A) (A) (A)
                 (A) (A) (A) (A) (A) (A) (A) (A) (A) (A) (A) (A)
                 (A) (A) (A) (A) (A) (A) (A) (A) (A) (A) (A) (A)
                 (A) (A) (A) (A) (A) (A) (A) (A) (A) (A) (A) (A)
                 (A) (A) (A) (A) (A) (A) (A) (A) (A) (A) (A) (A)
                 (A) (A) (A) (A) (A) (A) (A) (A) (A) (A) (A) (A)
                 (A) (A) (A) (A) (A) (A) (A) (A) (A) (A) (A) (A)
                 (A) (A) (A) (A) (A) (A) (A) (A) (A) (A) (A)
       Virtual   (A) (A) (A) (A) (A) (A) (A) (A) (A) (A) (A) (A)
                 (A) (A) (A) (A) (A) (A) (A) (A) (A) (A) (A) (A)
                 (A) (A) (A) (A) (A) (A) (A) (A) (A) (A) (A) (A)
                 (A) (A) (A) (A) (A) (A) (A) (A) (A) (A) (A) (A)
                 (A) (A) (A) (A) (A) (A) (A) (A) (A) (A) (A) (A)
                 (A) (A) (A) (A) (A) (A) (A) (A) (A) (A) (A) (A)
                 (A) (A) (A) (A) (A) (A) (A) (A) (A) (A) (A) (A)
                 (A) (A) (A) (A) (A) (A) (A) (A) (A) (A) (A) (A)
                 (A) (A) (A) (A) (A) (A) (A) (A) (A) (A) (A) (A)
                 (A) (A) (A) (A) (A) (A) (A) (A) (A) (A) (A) (A)
                 (A) (A) (A) (A) (A) (A) (A) (A) (A) (A) (A) (A)
                 (A) (A) (A) (A) (A) (A) (A) (A) (A) (A) (A) (A)
                 (A) (A) (A) (A) (A) (A) (A) (A) (A) (A) (A) (A)
                 (A) (A) (A) (A) (A) (A) (A) (A) (A) (A) (A) (A)
                 (A) (A) (A) (A) (A) (A) (A) (A) (A) (A) (A) (A)
                 (A) (A) (A) (A) (A) (A) (A) (A) (A) (A) (A) (A)
                 (A) (A) (A) (A) (A) (A) (A) (A) (A) (A) (A) (A)
                 (A) (A) (A) (A) (A) (A) (A) (A) (A) (A) (A) (A)
                 (A) (A) (A) (A) (A) (A) (A) (A) (A) (A) (A) (A)
                 (A) (A) (A) (A) (A) (A) (A) (A) (A) (A) (A) (A)
                 (A) (A) (A) (A) (A) (A) (A) (A) (A) (A) (A) (A)
                 (A) (A) (A) (A) (A) (A) (A) (A) (A) (A) (A) (A)
                 (A) (A) (A) (A) (A) (A) (A) (A) (A) (A) (A) (A)
                 (A) (A) (A) (A) (A) (A) (A) (A) (A) (A) (A) (A)
                 (A) (A) (A) (A) (A) (A) (A) (A) (A) (A) (A) (A)
                 (A) (A) (A) (A) (A) (A) (A) (A) (A) (A) (A) (A)
                 (A) (A) (A) (A) (A) (A) (A) (A) (A) (A) (A) (A)
                 (A) (A) (A) (A) (A) (A) (A) (A) (A) (A) (A) (A)
                 (A) (A) (A) (A) (A) (A) (A) (A) (A) (A) (A) (A)
                 (A) (A) (A) (A) (A) (A) (A) (A) (A) (A) (A) (A)
                 (A) (A) (A) (A) (A) (A) (A) (A) (A) (A) (A) (A)
                 (A) (A) (A) (A) (A) (A) (A) (A) (A) (A) (A) (A)
                 (A) (A) (A) (A) (A) (A) (A) (A) (A) (A) (A) (A)
                 (A) (A) (A) (A) (A) (A) (A) (A) (A) (A) (A) (A)
                 (A) (A) (A) (A) (A) (A) (A) (A) (A) (A) (A) (A)
                 (A) (A) (A) (A) (A) (A) (A) (A) (A) (A) (A) (A)
                 (A) (A) (A) (A) (A) (A) (A) (A) (A) (A) (A) (A)
                 (A) (A) (A) (A) (A) (A) (A) (A) (A) (A) (A) (A)
                 (A) (A)
 Beta  Orbitals:
       Occupied  (A) (A) (A) (A) (A) (A) (A) (A) (A) (A) (A) (A)
                 (A) (A) (A) (A) (A) (A) (A) (A) (A) (A) (A) (A)
                 (A) (A) (A) (A) (A) (A) (A) (A) (A) (A) (A) (A)
                 (A) (A) (A) (A) (A) (A) (A) (A) (A) (A) (A) (A)
                 (A) (A) (A) (A) (A) (A) (A) (A) (A) (A) (A) (A)
                 (A) (A) (A) (A) (A) (A) (A) (A) (A) (A) (A) (A)
                 (A) (A) (A) (A) (A) (A) (A) (A) (A) (A) (A) (A)
                 (A) (A) (A) (A) (A) (A) (A) (A) (A) (A) (A) (A)
                 (A) (A) (A) (A) (A) (A) (A) (A) (A) (A) (A) (A)
                 (A) (A) (A) (A) (A) (A) (A) (A) (A) (A) (A) (A)
                 (A) (A) (A) (A) (A) (A) (A) (A) (A) (A)
       Virtual   (A) (A) (A) (A) (A) (A) (A) (A) (A) (A) (A) (A)
                 (A) (A) (A) (A) (A) (A) (A) (A) (A) (A) (A) (A)
                 (A) (A) (A) (A) (A) (A) (A) (A) (A) (A) (A) (A)
                 (A) (A) (A) (A) (A) (A) (A) (A) (A) (A) (A) (A)
                 (A) (A) (A) (A) (A) (A) (A) (A) (A) (A) (A) (A)
                 (A) (A) (A) (A) (A) (A) (A) (A) (A) (A) (A) (A)
                 (A) (A) (A) (A) (A) (A) (A) (A) (A) (A) (A) (A)
                 (A) (A) (A) (A) (A) (A) (A) (A) (A) (A) (A) (A)
                 (A) (A) (A) (A) (A) (A) (A) (A) (A) (A) (A) (A)
                 (A) (A) (A) (A) (A) (A) (A) (A) (A) (A) (A) (A)
                 (A) (A) (A) (A) (A) (A) (A) (A) (A) (A) (A) (A)
                 (A) (A) (A) (A) (A) (A) (A) (A) (A) (A) (A) (A)
                 (A) (A) (A) (A) (A) (A) (A) (A) (A) (A) (A) (A)
                 (A) (A) (A) (A) (A) (A) (A) (A) (A) (A) (A) (A)
                 (A) (A) (A) (A) (A) (A) (A) (A) (A) (A) (A) (A)
                 (A) (A) (A) (A) (A) (A) (A) (A) (A) (A) (A) (A)
                 (A) (A) (A) (A) (A) (A) (A) (A) (A) (A) (A) (A)
                 (A) (A) (A) (A) (A) (A) (A) (A) (A) (A) (A) (A)
                 (A) (A) (A) (A) (A) (A) (A) (A) (A) (A) (A) (A)
                 (A) (A) (A) (A) (A) (A) (A) (A) (A) (A) (A) (A)
                 (A) (A) (A) (A) (A) (A) (A) (A) (A) (A) (A) (A)
                 (A) (A) (A) (A) (A) (A) (A) (A) (A) (A) (A) (A)
                 (A) (A) (A) (A) (A) (A) (A) (A) (A) (A) (A) (A)
                 (A) (A) (A) (A) (A) (A) (A) (A) (A) (A) (A) (A)
                 (A) (A) (A) (A) (A) (A) (A) (A) (A) (A) (A) (A)
                 (A) (A) (A) (A) (A) (A) (A) (A) (A) (A) (A) (A)
                 (A) (A) (A) (A) (A) (A) (A) (A) (A) (A) (A) (A)
                 (A) (A) (A) (A) (A) (A) (A) (A) (A) (A) (A) (A)
                 (A) (A) (A) (A) (A) (A) (A) (A) (A) (A) (A) (A)
                 (A) (A) (A) (A) (A) (A) (A) (A) (A) (A) (A) (A)
                 (A) (A) (A) (A) (A) (A) (A) (A) (A) (A) (A) (A)
                 (A) (A) (A) (A) (A) (A) (A) (A) (A) (A) (A) (A)
                 (A) (A) (A) (A) (A) (A) (A) (A) (A) (A) (A) (A)
                 (A) (A) (A) (A) (A) (A) (A) (A) (A) (A) (A) (A)
                 (A) (A) (A) (A) (A) (A) (A) (A) (A) (A) (A) (A)
                 (A) (A) (A) (A) (A) (A) (A) (A) (A) (A) (A) (A)
                 (A) (A) (A) (A) (A) (A) (A) (A) (A) (A) (A) (A)
                 (A) (A) (A) (A) (A) (A) (A) (A) (A) (A) (A) (A)
                 (A) (A) (A)
 The electronic state is 2-A.
 Alpha  occ. eigenvalues -- -276.76573 -32.58699 -28.24860 -28.24772 -28.24293
 Alpha  occ. eigenvalues --  -19.02466 -14.27880 -14.24383 -14.24221 -14.23224
 Alpha  occ. eigenvalues --  -14.23076 -14.22640 -10.16677 -10.14409 -10.14372
 Alpha  occ. eigenvalues --  -10.14248 -10.14168 -10.14065 -10.13975 -10.13188
 Alpha  occ. eigenvalues --  -10.13167 -10.13016 -10.11911 -10.10989 -10.10932
 Alpha  occ. eigenvalues --  -10.10910 -10.10790 -10.10723 -10.10656 -10.10224
 Alpha  occ. eigenvalues --  -10.10165 -10.09766 -10.09618 -10.09613 -10.09326
 Alpha  occ. eigenvalues --  -10.09104 -10.08985 -10.08745  -3.70087  -2.40261
 Alpha  occ. eigenvalues --   -2.40120  -2.39964  -1.04990  -1.04692  -0.99652
 Alpha  occ. eigenvalues --   -0.98386  -0.98330  -0.96355  -0.91860  -0.86783
 Alpha  occ. eigenvalues --   -0.85036  -0.81927  -0.81694  -0.81454  -0.81120
 Alpha  occ. eigenvalues --   -0.80554  -0.79748  -0.77487  -0.77024  -0.75598
 Alpha  occ. eigenvalues --   -0.74832  -0.69345  -0.68496  -0.67213  -0.67066
 Alpha  occ. eigenvalues --   -0.66136  -0.64068  -0.63832  -0.63804  -0.62657
 Alpha  occ. eigenvalues --   -0.60480  -0.59798  -0.59129  -0.58684  -0.58517
 Alpha  occ. eigenvalues --   -0.55951  -0.55655  -0.55142  -0.54906  -0.54401
 Alpha  occ. eigenvalues --   -0.53203  -0.53131  -0.52737  -0.52581  -0.51547
 Alpha  occ. eigenvalues --   -0.50872  -0.49541  -0.49058  -0.48481  -0.48127
 Alpha  occ. eigenvalues --   -0.47570  -0.46829  -0.46561  -0.45954  -0.45849
 Alpha  occ. eigenvalues --   -0.45076  -0.44498  -0.44364  -0.44335  -0.43935
 Alpha  occ. eigenvalues --   -0.43700  -0.43676  -0.43517  -0.42962  -0.42865
 Alpha  occ. eigenvalues --   -0.42782  -0.41832  -0.41366  -0.41317  -0.41168
 Alpha  occ. eigenvalues --   -0.40817  -0.40620  -0.39425  -0.39297  -0.39200
 Alpha  occ. eigenvalues --   -0.38626  -0.38212  -0.37878  -0.37204  -0.36867
 Alpha  occ. eigenvalues --   -0.36368  -0.35928  -0.33292  -0.31162  -0.29606
 Alpha  occ. eigenvalues --   -0.29402  -0.29234  -0.27932  -0.26703  -0.25906
 Alpha  occ. eigenvalues --   -0.24414
 Alpha virt. eigenvalues --   -0.18600  -0.15821  -0.15249  -0.13453  -0.12933
 Alpha virt. eigenvalues --   -0.09506  -0.08144  -0.07950  -0.06041  -0.05469
 Alpha virt. eigenvalues --   -0.05070  -0.04127  -0.03119  -0.02786  -0.02291
 Alpha virt. eigenvalues --   -0.01321  -0.00722  -0.00175   0.00067   0.01081
 Alpha virt. eigenvalues --    0.01229   0.01852   0.02343   0.02684   0.03098
 Alpha virt. eigenvalues --    0.03466   0.03830   0.04115   0.04501   0.04724
 Alpha virt. eigenvalues --    0.05077   0.05348   0.05630   0.05832   0.06373
 Alpha virt. eigenvalues --    0.06388   0.06798   0.07115   0.07384   0.07456
 Alpha virt. eigenvalues --    0.07772   0.08261   0.09164   0.09521   0.09660
 Alpha virt. eigenvalues --    0.09942   0.10028   0.10481   0.10760   0.11374
 Alpha virt. eigenvalues --    0.11738   0.12138   0.12524   0.12797   0.13355
 Alpha virt. eigenvalues --    0.13880   0.14395   0.15119   0.16057   0.17266
 Alpha virt. eigenvalues --    0.17676   0.18375   0.19049   0.19456   0.20263
 Alpha virt. eigenvalues --    0.20631   0.21027   0.22804   0.22900   0.24035
 Alpha virt. eigenvalues --    0.24944   0.26000   0.26436   0.27444   0.29002
 Alpha virt. eigenvalues --    0.29628   0.30279   0.31130   0.31693   0.33873
 Alpha virt. eigenvalues --    0.34228   0.37384   0.37921   0.38456   0.38813
 Alpha virt. eigenvalues --    0.39376   0.39521   0.40114   0.41001   0.41357
 Alpha virt. eigenvalues --    0.42310   0.42747   0.42931   0.43505   0.43723
 Alpha virt. eigenvalues --    0.43965   0.44536   0.44841   0.45126   0.45386
 Alpha virt. eigenvalues --    0.45826   0.46351   0.46488   0.46899   0.47214
 Alpha virt. eigenvalues --    0.47948   0.48210   0.48725   0.48889   0.49101
 Alpha virt. eigenvalues --    0.49804   0.50363   0.50479   0.50810   0.51179
 Alpha virt. eigenvalues --    0.51384   0.51872   0.52348   0.52611   0.53042
 Alpha virt. eigenvalues --    0.53625   0.54239   0.54481   0.55247   0.55819
 Alpha virt. eigenvalues --    0.56628   0.56751   0.58328   0.58960   0.59549
 Alpha virt. eigenvalues --    0.60389   0.61605   0.61956   0.62902   0.63509
 Alpha virt. eigenvalues --    0.63744   0.64493   0.65449   0.66602   0.67065
 Alpha virt. eigenvalues --    0.67196   0.67937   0.68776   0.69343   0.69618
 Alpha virt. eigenvalues --    0.69942   0.70328   0.71142   0.72019   0.72159
 Alpha virt. eigenvalues --    0.72489   0.72756   0.72894   0.73114   0.73401
 Alpha virt. eigenvalues --    0.73586   0.73894   0.74206   0.74423   0.75194
 Alpha virt. eigenvalues --    0.75449   0.75595   0.76368   0.76740   0.77653
 Alpha virt. eigenvalues --    0.77818   0.78227   0.79175   0.79722   0.79969
 Alpha virt. eigenvalues --    0.80136   0.80644   0.80940   0.81424   0.82205
 Alpha virt. eigenvalues --    0.82658   0.82940   0.83099   0.83653   0.83742
 Alpha virt. eigenvalues --    0.84093   0.84724   0.84909   0.85509   0.86067
 Alpha virt. eigenvalues --    0.86910   0.87763   0.88638   0.89877   0.90001
 Alpha virt. eigenvalues --    0.91768   0.92116   0.94053   0.95269   0.96018
 Alpha virt. eigenvalues --    0.96229   0.96736   0.97456   0.99168   0.99910
 Alpha virt. eigenvalues --    1.00189   1.00779   1.01903   1.02535   1.02989
 Alpha virt. eigenvalues --    1.03944   1.05232   1.05497   1.07206   1.07744
 Alpha virt. eigenvalues --    1.08247   1.09108   1.09981   1.11849   1.12182
 Alpha virt. eigenvalues --    1.13059   1.14616   1.15511   1.16344   1.16621
 Alpha virt. eigenvalues --    1.17854   1.18591   1.19122   1.19692   1.19911
 Alpha virt. eigenvalues --    1.21585   1.22294   1.23482   1.24186   1.25968
 Alpha virt. eigenvalues --    1.26547   1.26854   1.27750   1.28339   1.29700
 Alpha virt. eigenvalues --    1.30018   1.30314   1.31143   1.32079   1.33357
 Alpha virt. eigenvalues --    1.33979   1.34519   1.34812   1.36302   1.36820
 Alpha virt. eigenvalues --    1.37214   1.38036   1.38980   1.39904   1.40543
 Alpha virt. eigenvalues --    1.41399   1.42629   1.45167   1.45892   1.48443
 Alpha virt. eigenvalues --    1.48892   1.51331   1.51815   1.54046   1.55579
 Alpha virt. eigenvalues --    1.56145   1.56878   1.59065   1.59820   1.60047
 Alpha virt. eigenvalues --    1.60821   1.61507   1.61739   1.63189   1.63645
 Alpha virt. eigenvalues --    1.64455   1.65641   1.65969   1.66672   1.66849
 Alpha virt. eigenvalues --    1.67246   1.67763   1.68139   1.68750   1.69044
 Alpha virt. eigenvalues --    1.70013   1.70124   1.70361   1.70763   1.71544
 Alpha virt. eigenvalues --    1.73586   1.73743   1.74891   1.75393   1.76339
 Alpha virt. eigenvalues --    1.76548   1.77343   1.79374   1.80393   1.81127
 Alpha virt. eigenvalues --    1.81696   1.82087   1.82197   1.83564   1.84162
 Alpha virt. eigenvalues --    1.84282   1.84659   1.85160   1.86228   1.86600
 Alpha virt. eigenvalues --    1.87689   1.88173   1.89386   1.89710   1.89851
 Alpha virt. eigenvalues --    1.90774   1.91616   1.91969   1.93408   1.93599
 Alpha virt. eigenvalues --    1.94682   1.95219   1.97023   1.97101   1.98005
 Alpha virt. eigenvalues --    2.00581   2.00770   2.01655   2.02910   2.03542
 Alpha virt. eigenvalues --    2.04038   2.04447   2.04710   2.05444   2.06849
 Alpha virt. eigenvalues --    2.07319   2.08048   2.08837   2.09183   2.09769
 Alpha virt. eigenvalues --    2.10519   2.11252   2.11735   2.12156   2.12921
 Alpha virt. eigenvalues --    2.13232   2.13438   2.13749   2.14434   2.14696
 Alpha virt. eigenvalues --    2.15649   2.16278   2.16714   2.17485   2.18100
 Alpha virt. eigenvalues --    2.19609   2.19986   2.21047   2.23379   2.23586
 Alpha virt. eigenvalues --    2.26522   2.27477   2.28222   2.30118   2.30629
 Alpha virt. eigenvalues --    2.30870   2.33830   2.34096   2.35617   2.36473
 Alpha virt. eigenvalues --    2.36741   2.37087   2.37607   2.37927   2.38877
 Alpha virt. eigenvalues --    2.39470   2.39587   2.41755   2.42299   2.43551
 Alpha virt. eigenvalues --    2.43995   2.45093   2.46136   2.47637   2.48272
 Alpha virt. eigenvalues --    2.49023   2.50216   2.50891   2.51953   2.53085
 Alpha virt. eigenvalues --    2.53159   2.54166   2.54439   2.55091   2.56746
 Alpha virt. eigenvalues --    2.57336   2.58917   2.59814   2.60985   2.62197
 Alpha virt. eigenvalues --    2.62223   2.63398   2.65200   2.66369   2.68301
 Alpha virt. eigenvalues --    2.69299   2.69879   2.71506   2.72347   2.73601
 Alpha virt. eigenvalues --    2.74134   2.74594   2.76457   2.76883   2.82890
 Alpha virt. eigenvalues --    2.85941   2.89581   2.95182   2.95456   2.95626
 Alpha virt. eigenvalues --    2.97283   3.02531   3.08107   3.08949   3.09063
 Alpha virt. eigenvalues --    3.21944   3.24690   3.30532   3.31638   3.64870
 Alpha virt. eigenvalues --    3.92351   3.96111   3.98015   3.99382   4.02063
 Alpha virt. eigenvalues --    4.03697   4.04870   4.06413   4.06630   4.07479
 Alpha virt. eigenvalues --    4.08957   4.09992   4.12551   4.14825   4.16938
 Alpha virt. eigenvalues --    4.19808   4.22080   4.22405   4.23698   4.25106
 Alpha virt. eigenvalues --    4.29096   4.32264   4.34351   4.35531   4.43503
 Alpha virt. eigenvalues --    4.45412   4.51042   4.54583   4.55231   4.60678
 Alpha virt. eigenvalues --    4.62881   4.65937  26.22379
  Beta  occ. eigenvalues -- -276.76549 -32.56935 -28.23841 -28.23762 -28.22043
  Beta  occ. eigenvalues --  -19.02350 -14.27877 -14.24382 -14.24218 -14.23228
  Beta  occ. eigenvalues --  -14.23081 -14.22405 -10.16682 -10.14437 -10.14398
  Beta  occ. eigenvalues --  -10.14298 -10.14218 -10.14095 -10.14003 -10.13178
  Beta  occ. eigenvalues --  -10.13170 -10.13018 -10.11903 -10.10988 -10.10931
  Beta  occ. eigenvalues --  -10.10908 -10.10788 -10.10723 -10.10655 -10.10225
  Beta  occ. eigenvalues --  -10.10165 -10.09765 -10.09600 -10.09598 -10.09308
  Beta  occ. eigenvalues --  -10.09102 -10.08985 -10.08747  -3.65699  -2.37046
  Beta  occ. eigenvalues --   -2.36870  -2.33283  -1.04822  -1.04621  -0.99664
  Beta  occ. eigenvalues --   -0.98401  -0.98349  -0.96365  -0.91711  -0.86767
  Beta  occ. eigenvalues --   -0.85062  -0.81946  -0.81703  -0.81465  -0.81123
  Beta  occ. eigenvalues --   -0.80559  -0.79751  -0.77478  -0.77004  -0.75591
  Beta  occ. eigenvalues --   -0.74873  -0.69354  -0.68501  -0.67182  -0.66994
  Beta  occ. eigenvalues --   -0.66138  -0.64041  -0.63840  -0.63820  -0.62666
  Beta  occ. eigenvalues --   -0.60491  -0.59756  -0.59110  -0.58620  -0.58488
  Beta  occ. eigenvalues --   -0.55965  -0.55671  -0.55160  -0.54876  -0.54317
  Beta  occ. eigenvalues --   -0.53207  -0.53143  -0.52746  -0.52590  -0.51549
  Beta  occ. eigenvalues --   -0.50869  -0.49504  -0.48983  -0.48478  -0.48101
  Beta  occ. eigenvalues --   -0.47559  -0.46801  -0.46527  -0.45924  -0.45721
  Beta  occ. eigenvalues --   -0.45072  -0.44496  -0.44355  -0.44305  -0.43933
  Beta  occ. eigenvalues --   -0.43693  -0.43660  -0.43408  -0.42968  -0.42695
  Beta  occ. eigenvalues --   -0.42493  -0.41581  -0.41324  -0.41200  -0.40989
  Beta  occ. eigenvalues --   -0.40817  -0.40610  -0.39328  -0.39197  -0.39075
  Beta  occ. eigenvalues --   -0.38176  -0.37860  -0.37530  -0.36988  -0.36616
  Beta  occ. eigenvalues --   -0.36248  -0.35925  -0.33235  -0.30713  -0.29607
  Beta  occ. eigenvalues --   -0.29295  -0.27763  -0.26780  -0.25486  -0.24857
  Beta virt. eigenvalues --   -0.18541  -0.16235  -0.15258  -0.13438  -0.13223
  Beta virt. eigenvalues --   -0.12835  -0.09503  -0.07961  -0.07812  -0.06053
  Beta virt. eigenvalues --   -0.05534  -0.05081  -0.04114  -0.03090  -0.02779
  Beta virt. eigenvalues --   -0.02282  -0.01303  -0.00704  -0.00159   0.00080
  Beta virt. eigenvalues --    0.01082   0.01236   0.01866   0.02342   0.02682
  Beta virt. eigenvalues --    0.03098   0.03473   0.03820   0.04127   0.04502
  Beta virt. eigenvalues --    0.04731   0.05078   0.05336   0.05628   0.05828
  Beta virt. eigenvalues --    0.06365   0.06391   0.06796   0.07111   0.07393
  Beta virt. eigenvalues --    0.07475   0.07774   0.08270   0.09168   0.09527
  Beta virt. eigenvalues --    0.09687   0.09934   0.10010   0.10509   0.10765
  Beta virt. eigenvalues --    0.11412   0.11759   0.12127   0.12546   0.12805
  Beta virt. eigenvalues --    0.13595   0.13880   0.14496   0.15171   0.16085
  Beta virt. eigenvalues --    0.17264   0.17832   0.18389   0.19077   0.19572
  Beta virt. eigenvalues --    0.20377   0.20702   0.21246   0.22828   0.22870
  Beta virt. eigenvalues --    0.24393   0.25079   0.26305   0.26633   0.27583
  Beta virt. eigenvalues --    0.29062   0.30006   0.30334   0.31287   0.31749
  Beta virt. eigenvalues --    0.33873   0.34220   0.37421   0.37942   0.38485
  Beta virt. eigenvalues --    0.38799   0.39427   0.39544   0.40103   0.41019
  Beta virt. eigenvalues --    0.41379   0.42315   0.42733   0.42937   0.43492
  Beta virt. eigenvalues --    0.43725   0.43971   0.44537   0.44856   0.45127
  Beta virt. eigenvalues --    0.45400   0.45829   0.46399   0.46525   0.46908
  Beta virt. eigenvalues --    0.47229   0.47963   0.48234   0.48749   0.48920
  Beta virt. eigenvalues --    0.49118   0.49803   0.50383   0.50498   0.50826
  Beta virt. eigenvalues --    0.51195   0.51391   0.51887   0.52396   0.52636
  Beta virt. eigenvalues --    0.53053   0.53651   0.54262   0.54525   0.55236
  Beta virt. eigenvalues --    0.55822   0.56626   0.56759   0.58312   0.58926
  Beta virt. eigenvalues --    0.59512   0.60330   0.61641   0.61977   0.62879
  Beta virt. eigenvalues --    0.63575   0.63849   0.64496   0.65440   0.66598
  Beta virt. eigenvalues --    0.67083   0.67194   0.67928   0.68795   0.69394
  Beta virt. eigenvalues --    0.69641   0.69980   0.70353   0.71157   0.72033
  Beta virt. eigenvalues --    0.72170   0.72498   0.72786   0.72896   0.73115
  Beta virt. eigenvalues --    0.73411   0.73589   0.73903   0.74218   0.74428
  Beta virt. eigenvalues --    0.75232   0.75486   0.75647   0.76457   0.76768
  Beta virt. eigenvalues --    0.77718   0.77910   0.78261   0.79196   0.79733
  Beta virt. eigenvalues --    0.79996   0.80133   0.80663   0.80941   0.81419
  Beta virt. eigenvalues --    0.82236   0.82642   0.82938   0.83106   0.83661
  Beta virt. eigenvalues --    0.83775   0.84093   0.84763   0.84921   0.85528
  Beta virt. eigenvalues --    0.86080   0.86892   0.87850   0.88656   0.89929
  Beta virt. eigenvalues --    0.90052   0.91873   0.92217   0.94177   0.95434
  Beta virt. eigenvalues --    0.96073   0.96355   0.96774   0.97481   0.99240
  Beta virt. eigenvalues --    1.00001   1.00211   1.00865   1.01908   1.02555
  Beta virt. eigenvalues --    1.03065   1.04024   1.05245   1.05580   1.07248
  Beta virt. eigenvalues --    1.07802   1.08259   1.09164   1.10135   1.11888
  Beta virt. eigenvalues --    1.12234   1.13086   1.14631   1.15571   1.16386
  Beta virt. eigenvalues --    1.16752   1.17988   1.18666   1.19170   1.19794
  Beta virt. eigenvalues --    1.19953   1.21648   1.22360   1.23569   1.24245
  Beta virt. eigenvalues --    1.26049   1.26635   1.26885   1.27814   1.28394
  Beta virt. eigenvalues --    1.29743   1.30108   1.30565   1.31233   1.32223
  Beta virt. eigenvalues --    1.33435   1.34044   1.34622   1.34875   1.36386
  Beta virt. eigenvalues --    1.36835   1.37249   1.38121   1.39025   1.39958
  Beta virt. eigenvalues --    1.40677   1.41435   1.42727   1.45269   1.46028
  Beta virt. eigenvalues --    1.48780   1.49263   1.51427   1.52249   1.54229
  Beta virt. eigenvalues --    1.55682   1.56351   1.57018   1.59082   1.59839
  Beta virt. eigenvalues --    1.60074   1.60889   1.61476   1.61872   1.63240
  Beta virt. eigenvalues --    1.63842   1.64443   1.65679   1.66022   1.66692
  Beta virt. eigenvalues --    1.66894   1.67285   1.67833   1.68476   1.68800
  Beta virt. eigenvalues --    1.69126   1.70061   1.70181   1.70501   1.70888
  Beta virt. eigenvalues --    1.71673   1.73672   1.73842   1.74974   1.75486
  Beta virt. eigenvalues --    1.76386   1.76672   1.77381   1.79756   1.80443
  Beta virt. eigenvalues --    1.81269   1.81879   1.82221   1.82346   1.83674
  Beta virt. eigenvalues --    1.84293   1.84363   1.84787   1.85190   1.86233
  Beta virt. eigenvalues --    1.86686   1.87776   1.88185   1.89439   1.89763
  Beta virt. eigenvalues --    1.89970   1.90807   1.91882   1.92103   1.93540
  Beta virt. eigenvalues --    1.93755   1.94779   1.95389   1.97080   1.97159
  Beta virt. eigenvalues --    1.98130   2.00649   2.01226   2.01680   2.03013
  Beta virt. eigenvalues --    2.03648   2.04159   2.04520   2.05148   2.05620
  Beta virt. eigenvalues --    2.07081   2.07602   2.08131   2.08857   2.09468
  Beta virt. eigenvalues --    2.10105   2.10633   2.11424   2.11846   2.12260
  Beta virt. eigenvalues --    2.13080   2.13317   2.13525   2.13869   2.14533
  Beta virt. eigenvalues --    2.14747   2.15826   2.16774   2.16938   2.17605
  Beta virt. eigenvalues --    2.18126   2.19806   2.20164   2.21059   2.23533
  Beta virt. eigenvalues --    2.23651   2.26548   2.27526   2.28357   2.30319
  Beta virt. eigenvalues --    2.30737   2.31052   2.34009   2.34264   2.35778
  Beta virt. eigenvalues --    2.36548   2.37184   2.37391   2.37692   2.38011
  Beta virt. eigenvalues --    2.38871   2.39697   2.40002   2.41871   2.42538
  Beta virt. eigenvalues --    2.43707   2.44136   2.45707   2.46531   2.47960
  Beta virt. eigenvalues --    2.48378   2.49280   2.50322   2.51217   2.52624
  Beta virt. eigenvalues --    2.53134   2.53966   2.54187   2.54593   2.55851
[...]
    60   Atom       -0.000752      0.000197     -0.000216
    61   Atom       -0.000076     -0.000388     -0.000004
    62   Atom        0.000033     -0.000588     -0.000021
    63   Atom        0.000107     -0.000865     -0.000171
 --------------------------------------------------------


 ---------------------------------------------------------------------------------
              Anisotropic Spin Dipole Couplings in Principal Axis System
 ---------------------------------------------------------------------------------

       Atom             a.u.   MegaHertz   Gauss  10(-4) cm-1        Axes

              Baa    -0.0765     5.536     1.975     1.847  0.8024 -0.5019  0.3228
     1 O(17)  Bbb    -0.0743     5.374     1.918     1.793  0.2486  0.7730  0.5837
              Bcc     0.1508   -10.910    -3.893    -3.639 -0.5425 -0.3881  0.7450
 
              Baa    -0.0101    -5.382    -1.921    -1.795  0.7193  0.4154  0.5568
     2 H(1)   Bbb    -0.0053    -2.807    -1.001    -0.936 -0.1238  0.8653 -0.4857
              Bcc     0.0153     8.189     2.922     2.731  0.6836 -0.2805 -0.6738
 
              Baa    -0.0107    -5.728    -2.044    -1.911 -0.0704  0.9785  0.1941
     3 H(1)   Bbb    -0.0053    -2.816    -1.005    -0.939  0.9973  0.0727 -0.0046
              Bcc     0.0160     8.545     3.049     2.850  0.0186 -0.1932  0.9810
 
              Baa    -1.5508  -195.834   -69.879   -65.323 -0.1881  0.9819  0.0196
     4 Co(59) Bbb    -1.2705  -160.438   -57.248   -53.516  0.8181  0.1456  0.5564
              Bcc     2.8213   356.272   127.127   118.840 -0.5435 -0.1207  0.8307
 
              Baa    -0.0190    -0.733    -0.261    -0.244  0.6415  0.5861  0.4949
     5 N(14)  Bbb    -0.0055    -0.212    -0.076    -0.071 -0.1060 -0.5712  0.8140
              Bcc     0.0245     0.945     0.337     0.315  0.7598 -0.5746 -0.3042
 
              Baa    -0.0227    -3.047    -1.087    -1.017 -0.5690 -0.1209  0.8134
     6 C(13)  Bbb     0.0040     0.543     0.194     0.181  0.3804  0.8383  0.3907
              Bcc     0.0187     2.504     0.894     0.835  0.7291 -0.5317  0.4310
 
              Baa    -0.0017    -0.226    -0.081    -0.075  0.6239  0.7370  0.2600
     7 C(13)  Bbb    -0.0014    -0.191    -0.068    -0.064 -0.4087  0.0241  0.9123
              Bcc     0.0031     0.417     0.149     0.139 -0.6661  0.6755 -0.3163
 
              Baa    -0.0016    -0.220    -0.079    -0.073  0.9051  0.2743 -0.3249
     8 C(13)  Bbb    -0.0015    -0.206    -0.074    -0.069  0.2790  0.1936  0.9406
              Bcc     0.0032     0.426     0.152     0.142 -0.3209  0.9420 -0.0987
 
              Baa    -0.0374    -5.020    -1.791    -1.675 -0.5563 -0.0271  0.8306
     9 C(13)  Bbb     0.0112     1.507     0.538     0.503  0.8036  0.2368  0.5460
              Bcc     0.0262     3.513     1.254     1.172 -0.2115  0.9712 -0.1099
 
              Baa    -0.0102    -1.374    -0.490    -0.458  0.0701  0.9882  0.1364
    10 C(13)  Bbb     0.0028     0.381     0.136     0.127  0.6444 -0.1492  0.7500
              Bcc     0.0074     0.993     0.354     0.331  0.7615  0.0353 -0.6472
 
              Baa    -0.0242    -3.250    -1.160    -1.084 -0.6092  0.0019  0.7930
    11 C(13)  Bbb     0.0046     0.623     0.222     0.208 -0.2024  0.9665 -0.1579
              Bcc     0.0196     2.627     0.937     0.876  0.7668  0.2567  0.5884
 
              Baa    -0.0198    -0.763    -0.272    -0.255 -0.4015  0.8876 -0.2259
    12 N(14)  Bbb     0.0037     0.143     0.051     0.048 -0.1777  0.1665  0.9699
              Bcc     0.0161     0.620     0.221     0.207  0.8985  0.4295  0.0908
 
              Baa    -0.0061    -0.824    -0.294    -0.275  0.4687 -0.4612  0.7534
    13 C(13)  Bbb    -0.0045    -0.603    -0.215    -0.201  0.7807 -0.1829 -0.5976
              Bcc     0.0106     1.427     0.509     0.476  0.4134  0.8683  0.2743
 
              Baa    -0.0023    -0.313    -0.112    -0.104  0.6485 -0.6095  0.4560
    14 C(13)  Bbb    -0.0017    -0.224    -0.080    -0.075 -0.6036 -0.0468  0.7959
              Bcc     0.0040     0.537     0.191     0.179  0.4637  0.7914  0.3982
 
              Baa    -0.0017    -0.226    -0.081    -0.075 -0.3466  0.9174 -0.1955
    15 C(13)  Bbb    -0.0014    -0.184    -0.066    -0.062 -0.5605 -0.0354  0.8274
              Bcc     0.0031     0.410     0.146     0.137  0.7522  0.3963  0.5265
 
              Baa    -0.0066    -0.885    -0.316    -0.295  0.7559  0.1479  0.6378
    16 C(13)  Bbb    -0.0042    -0.566    -0.202    -0.189 -0.6068 -0.2075  0.7673
              Bcc     0.0108     1.451     0.518     0.484 -0.2458  0.9670  0.0671
 
              Baa    -0.0206    -0.796    -0.284    -0.265  0.4290  0.6220  0.6550
    17 N(14)  Bbb     0.0034     0.132     0.047     0.044  0.8797 -0.4522 -0.1468
              Bcc     0.0172     0.664     0.237     0.222 -0.2049 -0.6392  0.7412
 
              Baa    -0.0251    -3.369    -1.202    -1.124 -0.6789 -0.1697  0.7144
    18 C(13)  Bbb     0.0050     0.666     0.238     0.222  0.3658  0.7654  0.5295
              Bcc     0.0201     2.703     0.965     0.902  0.6366 -0.6208  0.4575
 
              Baa    -0.0017    -0.225    -0.080    -0.075  0.7067  0.6573  0.2616
    19 C(13)  Bbb    -0.0014    -0.189    -0.067    -0.063 -0.4364  0.1140  0.8925
              Bcc     0.0031     0.414     0.148     0.138 -0.5568  0.7449 -0.3674
 
              Baa    -0.0023    -0.313    -0.112    -0.105  0.6646  0.2060  0.7182
    20 C(13)  Bbb    -0.0015    -0.204    -0.073    -0.068  0.7191  0.0848 -0.6897
              Bcc     0.0039     0.517     0.184     0.172 -0.2031  0.9749 -0.0918
 
              Baa    -0.0108    -1.448    -0.517    -0.483  0.7946 -0.2066  0.5709
    21 C(13)  Bbb     0.0032     0.436     0.155     0.145  0.3323  0.9350 -0.1242
              Bcc     0.0075     1.012     0.361     0.338 -0.5082  0.2884  0.8115
 
              Baa    -0.0372    -4.998    -1.783    -1.667 -0.6372 -0.0499  0.7691
    22 C(13)  Bbb     0.0112     1.503     0.536     0.501  0.6299 -0.6087  0.4824
              Bcc     0.0260     3.495     1.247     1.166  0.4441  0.7918  0.4193
 
              Baa    -0.0200    -0.771    -0.275    -0.257 -0.3998  0.8672 -0.2969
    23 N(14)  Bbb    -0.0011    -0.041    -0.014    -0.014  0.8940  0.2974 -0.3353
              Bcc     0.0210     0.812     0.290     0.271  0.2025  0.3995  0.8941
 
              Baa    -0.0218    -2.931    -1.046    -0.978 -0.6918 -0.0860  0.7170
    24 C(13)  Bbb     0.0032     0.434     0.155     0.145 -0.1464  0.9890 -0.0225
              Bcc     0.0186     2.497     0.891     0.833  0.7071  0.1205  0.6967
 
              Baa    -0.0020    -0.263    -0.094    -0.088 -0.0455  0.9067 -0.4193
    25 C(13)  Bbb    -0.0015    -0.202    -0.072    -0.067  0.7655 -0.2380 -0.5978
              Bcc     0.0035     0.465     0.166     0.155  0.6418  0.3482  0.6833
 
              Baa    -0.0017    -0.226    -0.081    -0.075 -0.0644 -0.5254  0.8484
    26 C(13)  Bbb    -0.0016    -0.208    -0.074    -0.069  0.8705 -0.4452 -0.2096
              Bcc     0.0032     0.434     0.155     0.145  0.4879  0.7251  0.4860
 
              Baa    -0.0093    -1.248    -0.445    -0.416  0.1225  0.9466  0.2982
    27 C(13)  Bbb     0.0040     0.543     0.194     0.181  0.4198 -0.3216  0.8487
              Bcc     0.0053     0.705     0.252     0.235  0.8993  0.0212 -0.4368
 
              Baa    -0.0045    -0.599    -0.214    -0.200  0.0618  0.9820  0.1787
    28 C(13)  Bbb    -0.0039    -0.524    -0.187    -0.175  0.9197 -0.1256  0.3719
              Bcc     0.0084     1.123     0.401     0.375 -0.3876 -0.1414  0.9109
 
              Baa    -0.0118    -1.578    -0.563    -0.526  0.0847  0.9770  0.1957
    29 C(13)  Bbb    -0.0072    -0.965    -0.344    -0.322  0.4167 -0.2132  0.8837
              Bcc     0.0190     2.543     0.907     0.848  0.9051  0.0067 -0.4251
 
              Baa    -0.0945    -3.645    -1.301    -1.216  0.8802 -0.1579  0.4476
    30 N(14)  Bbb    -0.0694    -2.676    -0.955    -0.892  0.0791  0.9786  0.1898
              Bcc     0.1639     6.320     2.255     2.108 -0.4681 -0.1316  0.8738
 
              Baa    -0.0182    -2.442    -0.872    -0.815  0.0555  0.9824  0.1784
    31 C(13)  Bbb     0.0006     0.084     0.030     0.028  0.9604 -0.0037 -0.2787
              Bcc     0.0176     2.358     0.841     0.787  0.2732 -0.1868  0.9437
 
              Baa    -0.0099    -0.381    -0.136    -0.127  0.0902  0.9811  0.1710
    32 N(14)  Bbb    -0.0008    -0.032    -0.011    -0.011  0.8919 -0.1560  0.4245
              Bcc     0.0107     0.413     0.147     0.138 -0.4431 -0.1143  0.8891
 
              Baa    -0.0027    -0.362    -0.129    -0.121  0.1186  0.8637  0.4899
    33 C(13)  Bbb    -0.0026    -0.354    -0.126    -0.118  0.1475 -0.5032  0.8515
              Bcc     0.0053     0.716     0.255     0.239  0.9819 -0.0287 -0.1871
 
              Baa    -0.0022    -0.298    -0.106    -0.099  0.0697  0.9781  0.1962
    34 C(13)  Bbb    -0.0005    -0.072    -0.026    -0.024  0.2769 -0.2079  0.9382
              Bcc     0.0028     0.370     0.132     0.123  0.9584 -0.0111 -0.2853
 
              Baa    -0.0009    -0.117    -0.042    -0.039  0.4580 -0.1708  0.8724
    35 C(13)  Bbb    -0.0005    -0.066    -0.024    -0.022  0.0527  0.9849  0.1652
              Bcc     0.0014     0.183     0.065     0.061  0.8874  0.0297 -0.4601
 
              Baa    -0.0022    -0.289    -0.103    -0.096  0.0832  0.9792  0.1848
    36 C(13)  Bbb    -0.0010    -0.139    -0.050    -0.046  0.6230 -0.1959  0.7573
              Bcc     0.0032     0.428     0.153     0.143  0.7778  0.0522 -0.6264
 
              Baa    -0.0046    -2.461    -0.878    -0.821  0.7814 -0.3769  0.4973
    37 H(1)   Bbb    -0.0041    -2.206    -0.787    -0.736 -0.4060  0.2981  0.8639
              Bcc     0.0087     4.666     1.665     1.556  0.4739  0.8769 -0.0799
 
              Baa    -0.0047    -2.485    -0.887    -0.829  0.7130 -0.0918  0.6951
    38 H(1)   Bbb    -0.0040    -2.146    -0.766    -0.716  0.6509  0.4553 -0.6075
              Bcc     0.0087     4.631     1.653     1.545 -0.2607  0.8856  0.3844
 
              Baa    -0.0026    -1.367    -0.488    -0.456  0.7959 -0.2063  0.5692
    39 H(1)   Bbb    -0.0012    -0.654    -0.233    -0.218 -0.5959 -0.1010  0.7967
              Bcc     0.0038     2.020     0.721     0.674  0.1069  0.9733  0.2033
 
              Baa    -0.0024    -1.263    -0.451    -0.421  0.1343  0.9473  0.2908
    40 H(1)   Bbb    -0.0014    -0.723    -0.258    -0.241 -0.6911 -0.1208  0.7126
              Bcc     0.0037     1.986     0.709     0.663  0.7102 -0.2967  0.6385
 
              Baa    -0.0025    -1.316    -0.470    -0.439  0.0588  0.9895  0.1320
    41 H(1)   Bbb    -0.0014    -0.723    -0.258    -0.241 -0.5317 -0.0809  0.8431
              Bcc     0.0038     2.039     0.728     0.680  0.8449 -0.1198  0.5214
 
              Baa    -0.0018    -0.955    -0.341    -0.318  0.8999  0.1522  0.4087
    42 H(1)   Bbb    -0.0015    -0.820    -0.292    -0.273 -0.4328  0.1971  0.8797
              Bcc     0.0033     1.774     0.633     0.592 -0.0533  0.9685 -0.2433
 
              Baa    -0.0012    -0.659    -0.235    -0.220  0.6612  0.1560  0.7338
    43 H(1)   Bbb    -0.0011    -0.571    -0.204    -0.190  0.7117  0.1789 -0.6793
              Bcc     0.0023     1.229     0.439     0.410 -0.2373  0.9714  0.0073
 
              Baa    -0.0011    -0.611    -0.218    -0.204  0.9246  0.3132  0.2167
    44 H(1)   Bbb    -0.0011    -0.585    -0.209    -0.195 -0.2758  0.1581  0.9481
              Bcc     0.0022     1.196     0.427     0.399 -0.2627  0.9364 -0.2326
 
              Baa    -0.0011    -0.609    -0.217    -0.203  0.2622  0.5936  0.7609
    45 H(1)   Bbb    -0.0010    -0.548    -0.196    -0.183  0.8382  0.2507 -0.4844
              Bcc     0.0022     1.157     0.413     0.386 -0.4782  0.7647 -0.4318
 
              Baa    -0.0013    -0.703    -0.251    -0.235 -0.0931  0.9411 -0.3251
    46 H(1)   Bbb    -0.0012    -0.622    -0.222    -0.207  0.8386 -0.1019 -0.5352
              Bcc     0.0025     1.325     0.473     0.442  0.5368  0.3224  0.7797
 
              Baa    -0.0013    -0.681    -0.243    -0.227  0.7349  0.6632  0.1418
    47 H(1)   Bbb    -0.0012    -0.663    -0.237    -0.221 -0.2484  0.0685  0.9662
              Bcc     0.0025     1.344     0.480     0.448 -0.6311  0.7453 -0.2151
 
              Baa    -0.0010    -0.543    -0.194    -0.181  0.7323 -0.6300  0.2584
    48 H(1)   Bbb    -0.0009    -0.456    -0.163    -0.152 -0.5280 -0.2857  0.7997
              Bcc     0.0019     0.999     0.356     0.333  0.4300  0.7221  0.5419
 
              Baa    -0.0019    -0.991    -0.353    -0.330  0.8194 -0.5200  0.2413
    49 H(1)   Bbb    -0.0016    -0.861    -0.307    -0.287 -0.4819 -0.3968  0.7812
              Bcc     0.0035     1.851     0.661     0.618  0.3105  0.7564  0.5758
 
              Baa    -0.0012    -0.662    -0.236    -0.221  0.6860 -0.5558  0.4695
    50 H(1)   Bbb    -0.0011    -0.567    -0.202    -0.189 -0.5636  0.0022  0.8261
              Bcc     0.0023     1.229     0.438     0.410  0.4602  0.8313  0.3117
 
              Baa    -0.0013    -0.716    -0.255    -0.239 -0.5624  0.4967  0.6611
    51 H(1)   Bbb    -0.0013    -0.671    -0.240    -0.224 -0.1419  0.7297 -0.6689
              Bcc     0.0026     1.387     0.495     0.463  0.8146  0.4699  0.3399
 
              Baa    -0.0011    -0.583    -0.208    -0.194 -0.1037  0.8603 -0.4991
    52 H(1)   Bbb    -0.0010    -0.545    -0.194    -0.182  0.7105 -0.2871 -0.6425
              Bcc     0.0021     1.128     0.402     0.376  0.6960  0.4213  0.5815
 
              Baa    -0.0011    -0.599    -0.214    -0.200 -0.3580  0.9335 -0.0195
    53 H(1)   Bbb    -0.0009    -0.487    -0.174    -0.163 -0.5637 -0.1994  0.8016
              Bcc     0.0020     1.087     0.388     0.363  0.7444  0.2980  0.5976
 
              Baa    -0.0012    -0.645    -0.230    -0.215  0.6520  0.7508  0.1054
    54 H(1)   Bbb    -0.0011    -0.565    -0.202    -0.189 -0.2230  0.0570  0.9732
              Bcc     0.0023     1.211     0.432     0.404  0.7246 -0.6581  0.2046
 
              Baa    -0.0012    -0.625    -0.223    -0.209  0.7101 -0.6893  0.1435
    55 H(1)   Bbb    -0.0011    -0.602    -0.215    -0.201 -0.3665 -0.1879  0.9112
              Bcc     0.0023     1.228     0.438     0.409  0.6012  0.6997  0.3861
 
              Baa    -0.0011    -0.606    -0.216    -0.202  0.3250  0.7065  0.6286
    56 H(1)   Bbb    -0.0009    -0.504    -0.180    -0.168  0.7285  0.2368 -0.6428
              Bcc     0.0021     1.111     0.396     0.370 -0.6030  0.6669 -0.4378
 
              Baa    -0.0010    -0.549    -0.196    -0.183  0.5668  0.2601  0.7817
    57 H(1)   Bbb    -0.0009    -0.455    -0.162    -0.152  0.7346  0.2699 -0.6225
              Bcc     0.0019     1.004     0.358     0.335 -0.3729  0.9271 -0.0381
 
              Baa    -0.0053    -2.828    -1.009    -0.943 -0.0349  0.9746  0.2211
    58 H(1)   Bbb    -0.0043    -2.296    -0.819    -0.766  0.9654  0.0900 -0.2447
              Bcc     0.0096     5.124     1.829     1.709  0.2584 -0.2049  0.9441
 
              Baa    -0.0015    -0.784    -0.280    -0.262  0.0826  0.9780  0.1916
    59 H(1)   Bbb    -0.0010    -0.532    -0.190    -0.178  0.9771 -0.1173  0.1774
              Bcc     0.0025     1.317     0.470     0.439 -0.1959 -0.1726  0.9653
 
              Baa    -0.0039    -2.084    -0.744    -0.695  0.0623  0.9649  0.2551
    60 H(1)   Bbb    -0.0031    -1.648    -0.588    -0.550 -0.0379 -0.2531  0.9667
              Bcc     0.0070     3.733     1.332     1.245  0.9973 -0.0699  0.0208
 
              Baa    -0.0008    -0.429    -0.153    -0.143  0.0708  0.9719  0.2243
    61 H(1)   Bbb    -0.0007    -0.389    -0.139    -0.130  0.1618 -0.2331  0.9589
              Bcc     0.0015     0.818     0.292     0.273  0.9843 -0.0316 -0.1737
 
              Baa    -0.0005    -0.259    -0.092    -0.086  0.1286  0.9442  0.3031
    62 H(1)   Bbb    -0.0005    -0.253    -0.090    -0.085  0.4437 -0.3282  0.8340
              Bcc     0.0010     0.513     0.183     0.171  0.8869  0.0272 -0.4611
 
              Baa    -0.0007    -0.366    -0.130    -0.122  0.0830  0.9760  0.2014
    63 H(1)   Bbb    -0.0005    -0.292    -0.104    -0.097  0.7727 -0.1907  0.6054
              Bcc     0.0012     0.658     0.235     0.219 -0.6293 -0.1053  0.7700
 

 ---------------------------------------------------------------------------------

 1\1\GINC-NID03258\FOpt\UTPSSTPSS\6-31G(d)\C26H29Co1N6O1(1+,2)\PARKSJM\
 28-Oct-2015\0\\# tpsstpss/6-31G(d) opt integral=ultrafine scf=tight\\H
 2O.Co.2.Corrin.Bzm\\1,2\O,0.2737357295,0.2727471529,-2.7921422676\H,-0
 .4157684015,-0.1901163023,-3.3076766112\H,0.1398716603,1.218564378,-2.
 9996558018\Co,-0.0255936352,0.0685205635,-0.3242873871\N,-1.3543513966
 ,-1.3185509337,-0.4701177595\C,-1.0977154205,-2.6868074851,-0.51288999
 07\C,-2.3904670244,-3.4804991334,-0.6074683144\C,-3.4819818984,-2.4125
 921578,-0.3996071639\C,-2.7023021988,-1.111586123,-0.4367373628\C,0.15
 52800247,-3.2615198348,-0.4901689896\C,1.3595278524,-2.5017667121,-0.4
 953715771\N,1.3458120228,-1.1836545663,-0.4654981753\C,2.7188057951,-0
 .6471492312,-0.676653359\C,3.6285646671,-1.8048090107,-0.2298544234\C,
 2.7757031969,-3.046800775,-0.5970759094\C,2.7354476203,0.6988184393,0.
 0464190931\N,1.3927606085,1.2762460548,-0.2413382129\C,1.467657381,2.5
 758908197,-0.4486999694\C,2.8924108745,3.0887785493,-0.33389247\C,3.72
 36279659,1.784191466,-0.4298396389\C,-3.3118485835,0.1426773333,-0.424
 0834673\C,-2.6490557697,1.3667228401,-0.4807041664\N,-1.2920059259,1.5
 083725714,-0.4848344619\C,-0.9707014505,2.8456048494,-0.7011029213\C,-
 2.2237326298,3.6684793383,-0.950374862\C,-3.3575854243,2.7055469098,-0
 .5473218533\C,0.3074245729,3.3623336318,-0.7052466354\C,-0.2330186269,
 0.2054715198,4.1507775878\C,-0.1927383842,0.8613915162,2.8925392329\N,
 -0.132673713,-0.0939947583,1.867938149\C,-0.1350066932,-1.2682298844,2
 .483992641\N,-0.1948602077,-1.1513034992,3.8453823367\C,-0.2128289352,
 2.2657640216,2.8380591793\C,-0.2739260101,2.9613346336,4.0469968293\C,
 -0.3148204089,2.2900084153,5.2912047157\C,-0.2950150644,0.8959864463,5
 .3680195532\H,2.8291046561,-0.4582251519,-1.75726169\H,2.804980855,0.5
 320443599,1.1334039101\H,-4.3996209128,0.1657395269,-0.4028077582\H,0.
 4331442067,4.4262899057,-0.892951054\H,0.2245043564,-4.3467622961,-0.5
 201456797\H,4.0046639071,1.597085849,-1.4756060085\H,4.6396986454,1.81
 57852035,0.1694397862\H,-3.9842602647,-2.5191675394,0.5730468336\H,3.1
 396245488,3.8221240017,-1.1115709279\H,-2.2900521613,3.9370006558,-2.0
 152878644\H,3.0282247941,3.5878565705,0.6385436733\H,-4.1990240763,2.6
 967609115,-1.2500383165\H,3.7829639203,-1.7621031893,0.8577298529\H,4.
 6080689376,-1.7958671348,-0.7200236315\H,2.9755348661,-3.382555777,-1.
 6271085369\H,2.9435779612,-3.9074153284,0.0626429967\H,-2.2181036485,4
 .604867757,-0.3807820204\H,-2.4664892468,-3.9513136547,-1.5979036946\H
 ,-3.7632322696,2.9560101266,0.4445810195\H,-2.4263865507,-4.2881073396
 ,0.1337437326\H,-4.2651097114,-2.4384014224,-1.1675992712\H,-0.0936279
 199,-2.2284649495,1.9841232499\H,-0.2064376535,-1.9204898795,4.5073517
 625\H,-0.1806775294,2.7893083866,1.8862256416\H,-0.2905006793,4.049777
 1264,4.0353842376\H,-0.3624330538,2.8719604812,6.2095019178\H,-0.32577
 21461,0.3781937575,6.3246842733\\Version=AS64L-G09RevD.01\State=2-A\HF
 =-2794.8798926\S2=0.765271\S2-1=0.\S2A=0.750172\RMSD=6.697e-09\RMSF=2.
 356e-06\Dipole=-0.2882761,-0.6663343,-0.2420995\Quadrupole=-4.8285007,
 5.2157791,-0.3872784,0.5865774,2.3958663,-6.1214816\PG=C01 [X(C26H29Co
 1N6O1)]\\@


 MOM AND DAD WENT TO ALPHA CENTAURI AND ALL
 I GOT WAS THIS DUMB T-SHIRT.
 Job cpu time:       0 days  0 hours 10 minutes 40.5 seconds.
 File lengths (MBytes):  RWF=    373 Int=      0 D2E=      0 Chk=     35 Scr=      1
 Normal termination of Gaussian 09 at Wed Oct 28 22:53:48 2015.
