 Entering GApplication 60298246 resources: utime ~248128s, stime ~4497s, Rss ~8262040, inblocks ~57626411, outblocks ~19866187
eq.com
 Output=/global/homes/p/parksjm/tpss/H2O.Co.2.Corrin.Bzm/H2O.Co.2.Corrin.Bzm.tpss.631gs.freq.log
 Initial command:
 /usr/common/usg/g09/d1/g09/l1.exe "/scratch/scratchdirs/parksjm/g09/13504655.hopque01/Gau-15530.inp" -scrdir="/scratch/scratchdirs/parksjm/g09/13504655.hopque01/"
 Entering Link 1 = /usr/common/usg/g09/d1/g09/l1.exe PID=     15531.
  
 Copyright (c) 1988,1990,1992,1993,1995,1998,2003,2009,2013,
            Gaussian, Inc.  All Rights Reserved.
  
 This is part of the Gaussian(R) 09 program.  It is based on
 the Gaussian(R) 03 system (copyright 2003, Gaussian, Inc.),
 the Gaussian(R) 98 system (copyright 1998, Gaussian, Inc.),
 the Gaussian(R) 94 system (copyright 1995, Gaussian, Inc.),
 the Gaussian 92(TM) system (copyright 1992, Gaussian, Inc.),
 the Gaussian 90(TM) system (copyright 1990, Gaussian, Inc.),
 the Gaussian 88(TM) system (copyright 1988, Gaussian, Inc.),
 the Gaussian 86(TM) system (copyright 1986, Carnegie Mellon
 University), and the Gaussian 82(TM) system (copyright 1983,
 Carnegie Mellon University). Gaussian is a federally registered
 trademark of Gaussian, Inc.
  
 This software contains proprietary and confidential information,
 including trade secrets, belonging to Gaussian, Inc.
  
 This software is provided under written license and may be
 used, copied, transmitted, or stored only in accord with that
 written license.
  
 The following legend is applicable only to US Government
 contracts under FAR:
  
                    RESTRICTED RIGHTS LEGEND
  
 Use, reproduction and disclosure by the US Government is
 subject to restrictions as set forth in subparagraphs (a)
 and (c) of the Commercial Computer Software - Restricted
 Rights clause in FAR 52.227-19.
  
 Gaussian, Inc.
 340 Quinnipiac St., Bldg. 40, Wallingford CT 06492
  
  
 ---------------------------------------------------------------
 Warning -- This program may not be used in any manner that
 competes with the business of Gaussian, Inc. or will provide
 assistance to any competitor of Gaussian, Inc.  The licensee
 of this program is prohibited from giving any competitor of
 Gaussian, Inc. access to this program.  By using this program,
 the user acknowledges that Gaussian, Inc. is engaged in the
 business of creating and licensing software in the field of
 computational chemistry and represents and warrants to the
 licensee that it is not a competitor of Gaussian, Inc. and that
 it will not use this program in any manner prohibited above.
 ---------------------------------------------------------------
  

 Cite this work as:
 Gaussian 09, Revision D.01,
 M. J. Frisch, G. W. Trucks, H. B. Schlegel, G. E. Scuseria, 
 M. A. Robb, J. R. Cheeseman, G. Scalmani, V. Barone, B. Mennucci, 
 G. A. Petersson, H. Nakatsuji, M. Caricato, X. Li, H. P. Hratchian, 
 A. F. Izmaylov, J. Bloino, G. Zheng, J. L. Sonnenberg, M. Hada, 
 M. Ehara, K. Toyota, R. Fukuda, J. Hasegawa, M. Ishida, T. Nakajima, 
 Y. Honda, O. Kitao, H. Nakai, T. Vreven, J. A. Montgomery, Jr., 
 J. E. Peralta, F. Ogliaro, M. Bearpark, J. J. Heyd, E. Brothers, 
 K. N. Kudin, V. N. Staroverov, T. Keith, R. Kobayashi, J. Normand, 
 K. Raghavachari, A. Rendell, J. C. Burant, S. S. Iyengar, J. Tomasi, 
 M. Cossi, N. Rega, J. M. Millam, M. Klene, J. E. Knox, J. B. Cross, 
 V. Bakken, C. Adamo, J. Jaramillo, R. Gomperts, R. E. Stratmann, 
 O. Yazyev, A. J. Austin, R. Cammi, C. Pomelli, J. W. Ochterski, 
 R. L. Martin, K. Morokuma, V. G. Zakrzewski, G. A. Voth, 
 P. Salvador, J. J. Dannenberg, S. Dapprich, A. D. Daniels, 
 O. Farkas, J. B. Foresman, J. V. Ortiz, J. Cioslowski, 
 and D. J. Fox, Gaussian, Inc., Wallingford CT, 2013.
 
 ******************************************
 Gaussian 09:  AS64L-G09RevD.01 24-Apr-2013
                29-Oct-2015 
 ******************************************
 %nproc=24
 Will use up to   24 processors via shared memory.
 %chk=H2O.Co.2.Corrin.Bzm.chk
 %mem=7000mb
 -----------------------------------------------------
 # tpsstpss/6-31G(d) freq integral=ultrafine scf=tight
 -----------------------------------------------------
 1/10=4,30=1,38=1/1,3;
 2/12=2,17=6,18=5,40=1/2;
 3/5=1,6=6,7=1,11=2,16=1,25=1,30=1,71=2,74=2523,75=-5,140=1/1,2,3;
 4//1;
 5/5=2,32=2,38=5,98=1/2;
 8/6=4,10=90,11=11/1;
 11/6=1,8=1,9=11,15=111,16=1/1,2,10;
 10/6=1/2;
 6/7=2,8=2,9=2,10=2,18=1,28=1/1;
 7/8=1,10=1,25=1/1,2,3,16;
 1/10=4,30=1/3;
 99//99;
 -------------------
 H2O.Co.2.Corrin.Bzm
 -------------------
 Symbolic Z-matrix:
 Charge =  1 Multiplicity = 2
 O                     1.88154   0.51554  -2.57471 
 H                     2.47591  -0.21315  -2.84152 
 H                     1.22621   0.57306  -3.29775 
 Co                    0.57358   0.02505  -0.50825 
 N                     1.62334  -1.52567  -0.05648 
 C                     2.77841  -1.52501   0.72175 
 C                     3.32496  -2.93369   0.88607 
 C                     2.22029  -3.81932   0.27747 
 C                     1.28389  -2.81116  -0.36179 
 C                     3.37025  -0.40445   1.26476 
 C                     2.89908   0.91759   1.0246 
 N                     1.81953   1.14666   0.30306 
 C                     1.66723   2.60604   0.04898 
 C                     2.4419    3.2546    1.20947 
 C                     3.55813   2.21169   1.47618 
 C                     0.16475   2.82534  -0.12187 
 N                    -0.28503   1.63442  -0.89546 
 C                    -1.20138   1.96224  -1.78458 
 C                    -1.51875   3.44698  -1.753 
 C                    -0.3185    4.02627  -0.96186 
 C                     0.19791  -3.17706  -1.15656 
 C                    -0.67852  -2.29652  -1.78689 
 N                    -0.63558  -0.93935  -1.65308 
 C                    -1.54892  -0.36237  -2.5312 
 C                    -2.20841  -1.42234  -3.39773 
 C                    -1.79761  -2.73869  -2.7094 
 C                    -1.81675   0.98697  -2.6216 
 C                    -2.1682   -0.44146   3.00644 
 C                    -1.9581   -0.19921   1.62362 
 N                    -0.58543  -0.25142   1.34216 
 C                     0.00009  -0.51119   2.50321 
 N                    -0.89419  -0.63597   3.5305 
 C                    -3.05862   0.04504   0.78408 
 C                    -4.32979   0.03618   1.36126 
 C                    -4.51938  -0.20863   2.74131 
 C                    -3.44024  -0.45268   3.59306 
 H                     2.15753   2.81889  -0.91531 
 H                    -0.32662   2.79251   0.86387 
 H                     0.04311  -4.24075  -1.32632 
 H                    -2.54912   1.31966  -3.35372 
 H                     4.2688   -0.53589   1.86373 
 H                     0.4735    4.33456  -1.65851 
 H                    -0.58887   4.89173  -0.3477 
 H                     1.68201  -4.3943    1.04517 
 H                    -1.62745   3.87551  -2.75711 
 H                    -1.81141  -1.36892  -4.42246 
 H                    -2.47156   3.61     -1.22506 
 H                    -1.47681  -3.52007  -3.40829 
 H                     1.7913    3.34379   2.09109 
 H                     2.83189   4.2483    0.96402 
 H                     4.45132   2.41178   0.86314 
 H                     3.88524   2.17416   2.52291 
 H                    -3.29315  -1.2799   -3.46363 
 H                     4.27233  -3.03169   0.33718 
 H                    -2.62338  -3.15394  -2.11206 
 H                     3.53872  -3.16647   1.93633 
 H                     2.59946  -4.54248  -0.45536 
 H                     1.06873  -0.61646   2.64656 
 H                    -0.66239  -0.83264   4.49878 
 H                    -2.92151   0.23503  -0.27716 
 H                    -5.20069   0.22253   0.73522 
 H                    -5.52821  -0.2066    3.1493 
 H                    -3.58464  -0.64054   4.65519 
 

 GradGradGradGradGradGradGradGradGradGradGradGradGradGradGradGradGradGrad
 Berny optimization.
 Initialization pass.
 Trust Radius=3.00D-01 FncErr=1.00D-07 GrdErr=1.00D-07
 Number of steps in this run=      2 maximum allowed number of steps=      2.
 GradGradGradGradGradGradGradGradGradGradGradGradGradGradGradGradGradGrad

 Stoichiometry    C26H29CoN6O(1+,2)
 Framework group  C1[X(C26H29CoN6O)]
 Deg. of freedom   183
 Full point group                 C1      NOp   1
 Largest Abelian subgroup         C1      NOp   1
 Largest concise Abelian subgroup C1      NOp   1
                         Standard orientation:                         
 ---------------------------------------------------------------------
 Center     Atomic      Atomic             Coordinates (Angstroms)
 Number     Number       Type             X           Y           Z
 ---------------------------------------------------------------------
      1          8           0        1.881541    0.515538   -2.574708
      2          1           0        2.475907   -0.213145   -2.841515
      3          1           0        1.226214    0.573056   -3.297750
      4         27           0        0.573576    0.025050   -0.508247
      5          7           0        1.623338   -1.525671   -0.056476
      6          6           0        2.778406   -1.525011    0.721749
      7          6           0        3.324955   -2.933691    0.886074
      8          6           0        2.220287   -3.819324    0.277469
      9          6           0        1.283885   -2.811158   -0.361788
     10          6           0        3.370248   -0.404445    1.264763
     11          6           0        2.899080    0.917593    1.024596
     12          7           0        1.819534    1.146657    0.303063
     13          6           0        1.667232    2.606035    0.048984
     14          6           0        2.441901    3.254597    1.209468
     15          6           0        3.558134    2.211688    1.476176
     16          6           0        0.164749    2.825339   -0.121866
     17          7           0       -0.285033    1.634419   -0.895456
     18          6           0       -1.201376    1.962242   -1.784575
     19          6           0       -1.518745    3.446976   -1.753000
     20          6           0       -0.318498    4.026271   -0.961861
     21          6           0        0.197909   -3.177058   -1.156557
     22          6           0       -0.678518   -2.296520   -1.786886
     23          7           0       -0.635577   -0.939348   -1.653075
     24          6           0       -1.548918   -0.362369   -2.531199
     25          6           0       -2.208411   -1.422342   -3.397728
     26          6           0       -1.797605   -2.738685   -2.709403
     27          6           0       -1.816750    0.986974   -2.621603
     28          6           0       -2.168197   -0.441464    3.006441
     29          6           0       -1.958103   -0.199207    1.623622
     30          7           0       -0.585431   -0.251424    1.342157
     31          6           0        0.000090   -0.511189    2.503210
     32          7           0       -0.894192   -0.635967    3.530501
     33          6           0       -3.058623    0.045042    0.784078
     34          6           0       -4.329787    0.036180    1.361263
     35          6           0       -4.519379   -0.208631    2.741309
     36          6           0       -3.440236   -0.452680    3.593061
     37          1           0        2.157532    2.818893   -0.915313
     38          1           0       -0.326615    2.792509    0.863866
     39          1           0        0.043105   -4.240754   -1.326321
     40          1           0       -2.549124    1.319655   -3.353719
     41          1           0        4.268804   -0.535890    1.863731
     42          1           0        0.473496    4.334563   -1.658509
     43          1           0       -0.588866    4.891733   -0.347699
     44          1           0        1.682012   -4.394301    1.045166
     45          1           0       -1.627448    3.875514   -2.757108
     46          1           0       -1.811412   -1.368916   -4.422462
     47          1           0       -2.471562    3.610003   -1.225062
     48          1           0       -1.476811   -3.520069   -3.408285
     49          1           0        1.791300    3.343791    2.091094
     50          1           0        2.831888    4.248298    0.964024
     51          1           0        4.451319    2.411776    0.863138
     52          1           0        3.885243    2.174163    2.522914
     53          1           0       -3.293150   -1.279896   -3.463628
     54          1           0        4.272327   -3.031687    0.337175
     55          1           0       -2.623375   -3.153941   -2.112060
     56          1           0        3.538719   -3.166468    1.936330
     57          1           0        2.599458   -4.542481   -0.455362
     58          1           0        1.068735   -0.616459    2.646562
     59          1           0       -0.662390   -0.832641    4.498784
     60          1           0       -2.921508    0.235025   -0.277160
     61          1           0       -5.200686    0.222525    0.735222
     62          1           0       -5.528210   -0.206603    3.149304
     63          1           0       -3.584636   -0.640541    4.655191
 ---------------------------------------------------------------------
 Rotational constants (GHZ):      0.1451135      0.1288892      0.1234770
 Standard basis: 6-31G(d) (6D, 7F)
 There are   592 symmetry adapted cartesian basis functions of A   symmetry.
 There are   589 symmetry adapted basis functions of A   symmetry.
   589 basis functions,  1144 primitive gaussians,   592 cartesian basis functions
   131 alpha electrons      130 beta electrons
       nuclear repulsion energy      4595.3396461213 Hartrees.
 NAtoms=   63 NActive=   63 NUniq=   63 SFac= 1.00D+00 NAtFMM=   60 NAOKFM=T Big=T
 Integral buffers will be    131072 words long.
 Raffenetti 2 integral format.
 Two-electron integral symmetry is turned on.
 One-electron integrals computed using PRISM.
 NBasis=   589 RedAO= T EigKep=  3.58D-04  NBF=   589
 NBsUse=   589 1.00D-06 EigRej= -1.00D+00 NBFU=   589
 ExpMin= 4.30D-02 ExpMax= 6.61D+04 ExpMxC= 9.93D+03 IAcc=3 IRadAn=         5 AccDes= 0.00D+00
 Harris functional with IExCor= 1009 and IRadAn=       5 diagonalized for initial guess.
 HarFok:  IExCor= 1009 AccDes= 0.00D+00 IRadAn=         5 IDoV= 1 UseB2=F ITyADJ=14
 ICtDFT=  3500011 ScaDFX=  1.000000  1.000000  1.000000  1.000000
 FoFCou: FMM=F IPFlag=           0 FMFlag=      100000 FMFlg1=        2001
         NFxFlg=           0 DoJE=T BraDBF=F KetDBF=T FulRan=T
         wScrn=  0.000000 ICntrl=     500 IOpCl=  0 I1Cent=   200000004 NGrid=           0
         NMat0=    1 NMatS0=      1 NMatT0=    0 NMatD0=    1 NMtDS0=    0 NMtDT0=    0
 Petite list used in FoFCou.
 Initial guess <Sx>= 0.0000 <Sy>= 0.0000 <Sz>= 0.5000 <S**2>= 0.7500 S= 0.5000
 Requested convergence on RMS density matrix=1.00D-08 within 128 cycles.
 Requested convergence on MAX density matrix=1.00D-06.
 Requested convergence on             energy=1.00D-06.
 No special actions if energy rises.
 EnCoef did   100 forward-backward iterations
 EnCoef did   100 forward-backward iterations
 EnCoef did     4 forward-backward iterations
 EnCoef did     4 forward-backward iterations
 EnCoef did     4 forward-backward iterations
 EnCoef did     4 forward-backward iterations
 Restarting incremental Fock formation.
 SCF Done:  E(UTPSS-TPSS) =  -2794.87989262     A.U. after   25 cycles
            NFock= 25  Conv=0.82D-08     -V/T= 2.0052
 <Sx>= 0.0000 <Sy>= 0.0000 <Sz>= 0.5000 <S**2>= 0.7653 S= 0.5076
 <L.S>= 0.000000000000E+00
 Annihilation of the first spin contaminant:
 S**2 before annihilation     0.7653,   after     0.7502
 Range of M.O.s used for correlation:     1   589
 NBasis=   589 NAE=   131 NBE=   130 NFC=     0 NFV=     0
 NROrb=    589 NOA=   131 NOB=   130 NVA=   458 NVB=   459

 **** Warning!!: The largest alpha MO coefficient is  0.20102789D+02


 **** Warning!!: The smallest alpha delta epsilon is  0.58315015D-01


 **** Warning!!: The largest beta MO coefficient is  0.20103915D+02


 **** Warning!!: The smallest beta delta epsilon is  0.63622250D-01

 Symmetrizing basis deriv contribution to polar:
 IMax=3 JMax=2 DiffMx= 0.00D+00
 G2DrvN: will do    22 centers at a time, making    3 passes.
 Calling FoFCou, ICntrl=  3507 FMM=T I1Cent=   0 AccDes= 0.00D+00.
 Calling FoFCou, ICntrl=  3507 FMM=T I1Cent=   0 AccDes= 0.00D+00.
 Calling FoFCou, ICntrl=  3507 FMM=T I1Cent=   0 AccDes= 0.00D+00.
 End of G2Drv F.D. properties file   721 does not exist.
 End of G2Drv F.D. properties file   722 does not exist.
 End of G2Drv F.D. properties file   788 does not exist.
          IDoAtm=11111111111111111111111111111111111111111111111111
          IDoAtm=1111111111111
          Differentiating once with respect to electric field.
                with respect to dipole field.
          Differentiating once with respect to nuclear coordinates.
 CalDSu exits because no D1Ps are significant.
          There are   192 degrees of freedom in the 1st order CPHF.  IDoFFX=6 NUNeed=     3.
    192 vectors produced by pass  0 Test12= 1.20D-13 1.00D-09 XBig12= 2.47D+03 2.27D+01.
 AX will form    72 AO Fock derivatives at one time.
    192 vectors produced by pass  1 Test12= 1.20D-13 1.00D-09 XBig12= 1.92D+03 6.66D+00.
    189 vectors produced by pass  2 Test12= 1.20D-13 1.00D-09 XBig12= 5.98D+00 2.56D-01.
    189 vectors produced by pass  3 Test12= 1.20D-13 1.00D-09 XBig12= 3.38D-02 2.46D-02.
    189 vectors produced by pass  4 Test12= 1.20D-13 1.00D-09 XBig12= 5.29D-05 4.48D-04.
    164 vectors produced by pass  5 Test12= 1.20D-13 1.00D-09 XBig12= 1.13D-07 1.61D-05.
     59 vectors produced by pass  6 Test12= 1.20D-13 1.00D-09 XBig12= 2.28D-10 5.14D-07.
      3 vectors produced by pass  7 Test12= 1.20D-13 1.00D-09 XBig12= 7.25D-13 3.34D-08.
      2 vectors produced by pass  8 Test12= 1.20D-13 1.00D-09 XBig12= 2.21D-15 1.46D-09.
 InvSVY:  IOpt=1 It=  1 EMax= 4.26D-14
 Solved reduced A of dimension  1179 with   192 vectors.
 Isotropic polarizability for W=    0.000000      358.54 Bohr**3.
 End of Minotr F.D. properties file   721 does not exist.
 End of Minotr F.D. properties file   722 does not exist.
 End of Minotr F.D. properties file   788 does not exist.

 **********************************************************************

            Population analysis using the SCF density.

 **********************************************************************

 Orbital symmetries:
 Alpha Orbitals:
       Occupied  (A) (A) (A) (A) (A) (A) (A) (A) (A) (A) (A) (A)
                 (A) (A) (A) (A) (A) (A) (A) (A) (A) (A) (A) (A)
                 (A) (A) (A) (A) (A) (A) (A) (A) (A) (A) (A) (A)
                 (A) (A) (A) (A) (A) (A) (A) (A) (A) (A) (A) (A)
                 (A) (A) (A) (A) (A) (A) (A) (A) (A) (A) (A) (A)
                 (A) (A) (A) (A) (A) (A) (A) (A) (A) (A) (A) (A)
                 (A) (A) (A) (A) (A) (A) (A) (A) (A) (A) (A) (A)
                 (A) (A) (A) (A) (A) (A) (A) (A) (A) (A) (A) (A)
                 (A) (A) (A) (A) (A) (A) (A) (A) (A) (A) (A) (A)
                 (A) (A) (A) (A) (A) (A) (A) (A) (A) (A) (A) (A)
                 (A) (A) (A) (A) (A) (A) (A) (A) (A) (A) (A)
       Virtual   (A) (A) (A) (A) (A) (A) (A) (A) (A) (A) (A) (A)
                 (A) (A) (A) (A) (A) (A) (A) (A) (A) (A) (A) (A)
                 (A) (A) (A) (A) (A) (A) (A) (A) (A) (A) (A) (A)
                 (A) (A) (A) (A) (A) (A) (A) (A) (A) (A) (A) (A)
                 (A) (A) (A) (A) (A) (A) (A) (A) (A) (A) (A) (A)
                 (A) (A) (A) (A) (A) (A) (A) (A) (A) (A) (A) (A)
                 (A) (A) (A) (A) (A) (A) (A) (A) (A) (A) (A) (A)
                 (A) (A) (A) (A) (A) (A) (A) (A) (A) (A) (A) (A)
                 (A) (A) (A) (A) (A) (A) (A) (A) (A) (A) (A) (A)
                 (A) (A) (A) (A) (A) (A) (A) (A) (A) (A) (A) (A)
                 (A) (A) (A) (A) (A) (A) (A) (A) (A) (A) (A) (A)
                 (A) (A) (A) (A) (A) (A) (A) (A) (A) (A) (A) (A)
                 (A) (A) (A) (A) (A) (A) (A) (A) (A) (A) (A) (A)
                 (A) (A) (A) (A) (A) (A) (A) (A) (A) (A) (A) (A)
                 (A) (A) (A) (A) (A) (A) (A) (A) (A) (A) (A) (A)
                 (A) (A) (A) (A) (A) (A) (A) (A) (A) (A) (A) (A)
                 (A) (A) (A) (A) (A) (A) (A) (A) (A) (A) (A) (A)
                 (A) (A) (A) (A) (A) (A) (A) (A) (A) (A) (A) (A)
                 (A) (A) (A) (A) (A) (A) (A) (A) (A) (A) (A) (A)
                 (A) (A) (A) (A) (A) (A) (A) (A) (A) (A) (A) (A)
                 (A) (A) (A) (A) (A) (A) (A) (A) (A) (A) (A) (A)
                 (A) (A) (A) (A) (A) (A) (A) (A) (A) (A) (A) (A)
                 (A) (A) (A) (A) (A) (A) (A) (A) (A) (A) (A) (A)
                 (A) (A) (A) (A) (A) (A) (A) (A) (A) (A) (A) (A)
                 (A) (A) (A) (A) (A) (A) (A) (A) (A) (A) (A) (A)
                 (A) (A) (A) (A) (A) (A) (A) (A) (A) (A) (A) (A)
                 (A) (A) (A) (A) (A) (A) (A) (A) (A) (A) (A) (A)
                 (A) (A) (A) (A) (A) (A) (A) (A) (A) (A) (A) (A)
                 (A) (A) (A) (A) (A) (A) (A) (A) (A) (A) (A) (A)
                 (A) (A) (A) (A) (A) (A) (A) (A) (A) (A) (A) (A)
                 (A) (A) (A) (A) (A) (A) (A) (A) (A) (A) (A) (A)
                 (A) (A) (A) (A) (A) (A) (A) (A) (A) (A) (A) (A)
                 (A) (A) (A) (A) (A) (A) (A) (A) (A) (A) (A) (A)
                 (A) (A) (A) (A) (A) (A) (A) (A) (A) (A) (A) (A)
                 (A) (A) (A) (A) (A) (A) (A) (A) (A) (A) (A) (A)
                 (A) (A) (A) (A) (A) (A) (A) (A) (A) (A) (A) (A)
                 (A) (A) (A) (A) (A) (A) (A) (A) (A) (A) (A) (A)
                 (A) (A) (A) (A) (A) (A) (A) (A) (A) (A) (A) (A)
                 (A) (A)
 Beta  Orbitals:
       Occupied  (A) (A) (A) (A) (A) (A) (A) (A) (A) (A) (A) (A)
                 (A) (A) (A) (A) (A) (A) (A) (A) (A) (A) (A) (A)
                 (A) (A) (A) (A) (A) (A) (A) (A) (A) (A) (A) (A)
                 (A) (A) (A) (A) (A) (A) (A) (A) (A) (A) (A) (A)
                 (A) (A) (A) (A) (A) (A) (A) (A) (A) (A) (A) (A)
                 (A) (A) (A) (A) (A) (A) (A) (A) (A) (A) (A) (A)
                 (A) (A) (A) (A) (A) (A) (A) (A) (A) (A) (A) (A)
                 (A) (A) (A) (A) (A) (A) (A) (A) (A) (A) (A) (A)
                 (A) (A) (A) (A) (A) (A) (A) (A) (A) (A) (A) (A)
                 (A) (A) (A) (A) (A) (A) (A) (A) (A) (A) (A) (A)
                 (A) (A) (A) (A) (A) (A) (A) (A) (A) (A)
       Virtual   (A) (A) (A) (A) (A) (A) (A) (A) (A) (A) (A) (A)
                 (A) (A) (A) (A) (A) (A) (A) (A) (A) (A) (A) (A)
                 (A) (A) (A) (A) (A) (A) (A) (A) (A) (A) (A) (A)
                 (A) (A) (A) (A) (A) (A) (A) (A) (A) (A) (A) (A)
                 (A) (A) (A) (A) (A) (A) (A) (A) (A) (A) (A) (A)
                 (A) (A) (A) (A) (A) (A) (A) (A) (A) (A) (A) (A)
                 (A) (A) (A) (A) (A) (A) (A) (A) (A) (A) (A) (A)
                 (A) (A) (A) (A) (A) (A) (A) (A) (A) (A) (A) (A)
                 (A) (A) (A) (A) (A) (A) (A) (A) (A) (A) (A) (A)
                 (A) (A) (A) (A) (A) (A) (A) (A) (A) (A) (A) (A)
                 (A) (A) (A) (A) (A) (A) (A) (A) (A) (A) (A) (A)
                 (A) (A) (A) (A) (A) (A) (A) (A) (A) (A) (A) (A)
                 (A) (A) (A) (A) (A) (A) (A) (A) (A) (A) (A) (A)
                 (A) (A) (A) (A) (A) (A) (A) (A) (A) (A) (A) (A)
                 (A) (A) (A) (A) (A) (A) (A) (A) (A) (A) (A) (A)
                 (A) (A) (A) (A) (A) (A) (A) (A) (A) (A) (A) (A)
                 (A) (A) (A) (A) (A) (A) (A) (A) (A) (A) (A) (A)
                 (A) (A) (A) (A) (A) (A) (A) (A) (A) (A) (A) (A)
                 (A) (A) (A) (A) (A) (A) (A) (A) (A) (A) (A) (A)
                 (A) (A) (A) (A) (A) (A) (A) (A) (A) (A) (A) (A)
                 (A) (A) (A) (A) (A) (A) (A) (A) (A) (A) (A) (A)
                 (A) (A) (A) (A) (A) (A) (A) (A) (A) (A) (A) (A)
                 (A) (A) (A) (A) (A) (A) (A) (A) (A) (A) (A) (A)
                 (A) (A) (A) (A) (A) (A) (A) (A) (A) (A) (A) (A)
                 (A) (A) (A) (A) (A) (A) (A) (A) (A) (A) (A) (A)
                 (A) (A) (A) (A) (A) (A) (A) (A) (A) (A) (A) (A)
                 (A) (A) (A) (A) (A) (A) (A) (A) (A) (A) (A) (A)
                 (A) (A) (A) (A) (A) (A) (A) (A) (A) (A) (A) (A)
                 (A) (A) (A) (A) (A) (A) (A) (A) (A) (A) (A) (A)
                 (A) (A) (A) (A) (A) (A) (A) (A) (A) (A) (A) (A)
                 (A) (A) (A) (A) (A) (A) (A) (A) (A) (A) (A) (A)
                 (A) (A) (A) (A) (A) (A) (A) (A) (A) (A) (A) (A)
                 (A) (A) (A) (A) (A) (A) (A) (A) (A) (A) (A) (A)
                 (A) (A) (A) (A) (A) (A) (A) (A) (A) (A) (A) (A)
                 (A) (A) (A) (A) (A) (A) (A) (A) (A) (A) (A) (A)
                 (A) (A) (A) (A) (A) (A) (A) (A) (A) (A) (A) (A)
                 (A) (A) (A) (A) (A) (A) (A) (A) (A) (A) (A) (A)
                 (A) (A) (A) (A) (A) (A) (A) (A) (A) (A) (A) (A)
                 (A) (A) (A)
 The electronic state is 2-A.
 Alpha  occ. eigenvalues -- -276.76486 -32.58620 -28.24778 -28.24690 -28.24218
 Alpha  occ. eigenvalues --  -19.02477 -14.27799 -14.24239 -14.24083 -14.23138
 Alpha  occ. eigenvalues --  -14.22986 -14.22557 -10.16552 -10.14261 -10.14255
 Alpha  occ. eigenvalues --  -10.14090 -10.14016 -10.13981 -10.13868 -10.13086
 Alpha  occ. eigenvalues --  -10.13053 -10.12888 -10.11794 -10.10771 -10.10748
 Alpha  occ. eigenvalues --  -10.10692 -10.10585 -10.10550 -10.10495 -10.10047
 Alpha  occ. eigenvalues --  -10.09997 -10.09628 -10.09478 -10.09445 -10.09112
 Alpha  occ. eigenvalues --  -10.08968 -10.08837 -10.08595  -3.70010  -2.40176
 Alpha  occ. eigenvalues --   -2.40044  -2.39895  -1.05121  -1.04856  -0.99709
 Alpha  occ. eigenvalues --   -0.98436  -0.98383  -0.96420  -0.91944  -0.86943
 Alpha  occ. eigenvalues --   -0.85067  -0.81964  -0.81759  -0.81465  -0.81165
 Alpha  occ. eigenvalues --   -0.80611  -0.79816  -0.77600  -0.77137  -0.75646
 Alpha  occ. eigenvalues --   -0.74839  -0.69412  -0.68541  -0.67341  -0.67151
 Alpha  occ. eigenvalues --   -0.66222  -0.64146  -0.63889  -0.63858  -0.62780
 Alpha  occ. eigenvalues --   -0.60495  -0.59838  -0.59276  -0.58859  -0.58526
 Alpha  occ. eigenvalues --   -0.56031  -0.55689  -0.55209  -0.54962  -0.54430
 Alpha  occ. eigenvalues --   -0.53290  -0.53228  -0.52861  -0.52708  -0.51591
 Alpha  occ. eigenvalues --   -0.50879  -0.49649  -0.49155  -0.48584  -0.48222
 Alpha  occ. eigenvalues --   -0.47569  -0.46873  -0.46595  -0.46121  -0.45902
 Alpha  occ. eigenvalues --   -0.45185  -0.44534  -0.44439  -0.44378  -0.43942
 Alpha  occ. eigenvalues --   -0.43669  -0.43614  -0.43479  -0.43065  -0.42842
 Alpha  occ. eigenvalues --   -0.42789  -0.41856  -0.41400  -0.41353  -0.41202
 Alpha  occ. eigenvalues --   -0.40794  -0.40554  -0.39429  -0.39314  -0.39184
 Alpha  occ. eigenvalues --   -0.38636  -0.38209  -0.37811  -0.37188  -0.36872
 Alpha  occ. eigenvalues --   -0.36360  -0.35964  -0.33281  -0.31150  -0.29643
 Alpha  occ. eigenvalues --   -0.29422  -0.29203  -0.27838  -0.26655  -0.25852
 Alpha  occ. eigenvalues --   -0.24335
 Alpha virt. eigenvalues --   -0.18504  -0.15660  -0.15150  -0.13381  -0.12811
 Alpha virt. eigenvalues --   -0.09433  -0.08061  -0.07882  -0.05849  -0.05255
 Alpha virt. eigenvalues --   -0.04868  -0.04040  -0.02985  -0.02652  -0.02159
 Alpha virt. eigenvalues --   -0.01222  -0.00542   0.00011   0.00232   0.01240
 Alpha virt. eigenvalues --    0.01374   0.02002   0.02514   0.02910   0.03262
 Alpha virt. eigenvalues --    0.03674   0.04013   0.04309   0.04668   0.04872
 Alpha virt. eigenvalues --    0.05279   0.05484   0.05781   0.06036   0.06524
 Alpha virt. eigenvalues --    0.06621   0.07002   0.07323   0.07526   0.07641
 Alpha virt. eigenvalues --    0.07933   0.08394   0.09302   0.09629   0.09823
 Alpha virt. eigenvalues --    0.10108   0.10194   0.10578   0.10936   0.11382
 Alpha virt. eigenvalues --    0.11722   0.12301   0.12565   0.12956   0.13527
 Alpha virt. eigenvalues --    0.14025   0.14567   0.15295   0.16155   0.17260
 Alpha virt. eigenvalues --    0.17794   0.18515   0.19148   0.19673   0.20497
 Alpha virt. eigenvalues --    0.20662   0.21210   0.22973   0.23067   0.24143
 Alpha virt. eigenvalues --    0.25017   0.26166   0.26668   0.27652   0.29192
 Alpha virt. eigenvalues --    0.29803   0.30457   0.31302   0.31775   0.34026
 Alpha virt. eigenvalues --    0.34398   0.37511   0.37985   0.38476   0.38866
 Alpha virt. eigenvalues --    0.39459   0.39594   0.40206   0.41048   0.41384
 Alpha virt. eigenvalues --    0.42389   0.42769   0.42885   0.43471   0.43849
 Alpha virt. eigenvalues --    0.44027   0.44549   0.44881   0.45072   0.45269
 Alpha virt. eigenvalues --    0.45905   0.46432   0.46481   0.47013   0.47324
 Alpha virt. eigenvalues --    0.48041   0.48357   0.48739   0.49099   0.49231
 Alpha virt. eigenvalues --    0.49822   0.50476   0.50579   0.50768   0.51090
 Alpha virt. eigenvalues --    0.51432   0.52079   0.52404   0.52719   0.52947
 Alpha virt. eigenvalues --    0.53666   0.54408   0.54643   0.55346   0.56077
 Alpha virt. eigenvalues --    0.56729   0.56834   0.58425   0.59060   0.59741
 Alpha virt. eigenvalues --    0.60452   0.61890   0.62030   0.62948   0.63638
 Alpha virt. eigenvalues --    0.63869   0.64823   0.65603   0.66726   0.66854
 Alpha virt. eigenvalues --    0.67417   0.68126   0.68857   0.69627   0.69719
 Alpha virt. eigenvalues --    0.70058   0.70691   0.71473   0.72242   0.72310
 Alpha virt. eigenvalues --    0.72776   0.73042   0.73220   0.73587   0.73803
 Alpha virt. eigenvalues --    0.73921   0.74182   0.74554   0.74761   0.75522
 Alpha virt. eigenvalues --    0.75791   0.75951   0.76737   0.77039   0.77843
 Alpha virt. eigenvalues --    0.78150   0.78401   0.79591   0.79896   0.80188
 Alpha virt. eigenvalues --    0.80482   0.80972   0.81145   0.81701   0.82566
 Alpha virt. eigenvalues --    0.83102   0.83321   0.83600   0.83927   0.84320
 Alpha virt. eigenvalues --    0.84554   0.84827   0.85256   0.85833   0.86112
 Alpha virt. eigenvalues --    0.87070   0.88150   0.88901   0.90319   0.90419
 Alpha virt. eigenvalues --    0.91914   0.92424   0.94037   0.95491   0.96055
 Alpha virt. eigenvalues --    0.96361   0.96904   0.97586   0.99428   1.00095
 Alpha virt. eigenvalues --    1.00234   1.00778   1.02046   1.02621   1.03018
 Alpha virt. eigenvalues --    1.04230   1.05323   1.05604   1.07514   1.07879
 Alpha virt. eigenvalues --    1.08433   1.09229   1.10064   1.11730   1.12462
 Alpha virt. eigenvalues --    1.13344   1.14499   1.14964   1.16615   1.17163
 Alpha virt. eigenvalues --    1.17902   1.18852   1.19041   1.19990   1.20315
 Alpha virt. eigenvalues --    1.21598   1.22507   1.23846   1.24383   1.26557
 Alpha virt. eigenvalues --    1.26911   1.27171   1.28037   1.28449   1.29676
 Alpha virt. eigenvalues --    1.30045   1.30524   1.31347   1.32425   1.33360
 Alpha virt. eigenvalues --    1.34112   1.34640   1.34921   1.36341   1.36883
 Alpha virt. eigenvalues --    1.37257   1.38143   1.39017   1.40058   1.40630
 Alpha virt. eigenvalues --    1.41689   1.42831   1.45239   1.46008   1.48077
 Alpha virt. eigenvalues --    1.49061   1.51110   1.52167   1.54222   1.55561
 Alpha virt. eigenvalues --    1.56327   1.56779   1.59399   1.60070   1.60138
 Alpha virt. eigenvalues --    1.61251   1.61931   1.61978   1.63396   1.63937
 Alpha virt. eigenvalues --    1.65044   1.65880   1.66388   1.66828   1.67116
 Alpha virt. eigenvalues --    1.67591   1.68095   1.68524   1.69138   1.69363
 Alpha virt. eigenvalues --    1.70221   1.70415   1.70616   1.71140   1.71741
 Alpha virt. eigenvalues --    1.73579   1.73966   1.75062   1.75573   1.76566
 Alpha virt. eigenvalues --    1.77113   1.78011   1.79723   1.80485   1.81612
 Alpha virt. eigenvalues --    1.81782   1.82357   1.82580   1.83852   1.84497
 Alpha virt. eigenvalues --    1.84857   1.85103   1.85669   1.86498   1.86775
 Alpha virt. eigenvalues --    1.87865   1.88295   1.89596   1.90098   1.90262
 Alpha virt. eigenvalues --    1.90891   1.92071   1.92216   1.93813   1.94837
 Alpha virt. eigenvalues --    1.95245   1.95971   1.97428   1.97660   1.98581
 Alpha virt. eigenvalues --    2.00920   2.01144   2.01808   2.03490   2.03916
 Alpha virt. eigenvalues --    2.04425   2.04778   2.05171   2.05636   2.07512
 Alpha virt. eigenvalues --    2.07618   2.08798   2.09013   2.09891   2.10139
 Alpha virt. eigenvalues --    2.10698   2.11720   2.12259   2.12799   2.13349
 Alpha virt. eigenvalues --    2.13615   2.13688   2.14015   2.14468   2.15073
 Alpha virt. eigenvalues --    2.16208   2.16784   2.17314   2.17875   2.18519
 Alpha virt. eigenvalues --    2.19628   2.20312   2.20941   2.22912   2.23762
 Alpha virt. eigenvalues --    2.26876   2.27884   2.28731   2.30368   2.31044
 Alpha virt. eigenvalues --    2.31240   2.34199   2.34513   2.36036   2.36884
 Alpha virt. eigenvalues --    2.37232   2.37502   2.37955   2.38363   2.39413
 Alpha virt. eigenvalues --    2.39785   2.40173   2.41916   2.42714   2.43986
 Alpha virt. eigenvalues --    2.44508   2.45409   2.46596   2.47974   2.48776
 Alpha virt. eigenvalues --    2.49331   2.50594   2.51348   2.52300   2.53478
 Alpha virt. eigenvalues --    2.53700   2.54433   2.54757   2.55388   2.57028
 Alpha virt. eigenvalues --    2.57781   2.59276   2.60224   2.61275   2.62561
 Alpha virt. eigenvalues --    2.62667   2.63969   2.65641   2.66793   2.68582
 Alpha virt. eigenvalues --    2.69537   2.70214   2.71851   2.72700   2.73874
 Alpha virt. eigenvalues --    2.74421   2.74828   2.76654   2.77265   2.83140
 Alpha virt. eigenvalues --    2.86154   2.89985   2.95634   2.95862   2.95883
 Alpha virt. eigenvalues --    2.98089   3.03015   3.08539   3.09363   3.09499
 Alpha virt. eigenvalues --    3.22590   3.25606   3.31237   3.32885   3.65497
 Alpha virt. eigenvalues --    3.92634   3.96487   3.98452   3.99768   4.02246
 Alpha virt. eigenvalues --    4.04153   4.05109   4.06918   4.07123   4.07884
 Alpha virt. eigenvalues --    4.09099   4.10186   4.12843   4.15202   4.17080
 Alpha virt. eigenvalues --    4.20169   4.22321   4.22627   4.24298   4.25266
 Alpha virt. eigenvalues --    4.29390   4.32908   4.34720   4.35787   4.43624
 Alpha virt. eigenvalues --    4.45262   4.51293   4.54458   4.55253   4.60973
 Alpha virt. eigenvalues --    4.63056   4.66394  26.23163
  Beta  occ. eigenvalues -- -276.76462 -32.56856 -28.23759 -28.23682 -28.21967
  Beta  occ. eigenvalues --  -19.02362 -14.27795 -14.24238 -14.24080 -14.23142
  Beta  occ. eigenvalues --  -14.22991 -14.22322 -10.16557 -10.14287 -10.14282
  Beta  occ. eigenvalues --  -10.14139 -10.14065 -10.14010 -10.13896 -10.13076
  Beta  occ. eigenvalues --  -10.13056 -10.12890 -10.11786 -10.10771 -10.10747
  Beta  occ. eigenvalues --  -10.10690 -10.10584 -10.10550 -10.10495 -10.10048
  Beta  occ. eigenvalues --  -10.09997 -10.09628 -10.09464 -10.09428 -10.09094
  Beta  occ. eigenvalues --  -10.08967 -10.08836 -10.08596  -3.65623  -2.36967
  Beta  occ. eigenvalues --   -2.36795  -2.33212  -1.04957  -1.04785  -0.99721
  Beta  occ. eigenvalues --   -0.98451  -0.98402  -0.96430  -0.91796  -0.86927
  Beta  occ. eigenvalues --   -0.85093  -0.81982  -0.81768  -0.81476  -0.81168
  Beta  occ. eigenvalues --   -0.80616  -0.79818  -0.77591  -0.77118  -0.75639
  Beta  occ. eigenvalues --   -0.74879  -0.69421  -0.68546  -0.67309  -0.67079
  Beta  occ. eigenvalues --   -0.66224  -0.64115  -0.63896  -0.63878  -0.62790
  Beta  occ. eigenvalues --   -0.60506  -0.59795  -0.59257  -0.58795  -0.58495
  Beta  occ. eigenvalues --   -0.56042  -0.55707  -0.55227  -0.54933  -0.54349
  Beta  occ. eigenvalues --   -0.53295  -0.53235  -0.52873  -0.52712  -0.51592
  Beta  occ. eigenvalues --   -0.50877  -0.49612  -0.49081  -0.48579  -0.48195
  Beta  occ. eigenvalues --   -0.47559  -0.46839  -0.46559  -0.46008  -0.45851
  Beta  occ. eigenvalues --   -0.45182  -0.44540  -0.44410  -0.44366  -0.43932
  Beta  occ. eigenvalues --   -0.43639  -0.43609  -0.43393  -0.43063  -0.42685
  Beta  occ. eigenvalues --   -0.42474  -0.41623  -0.41332  -0.41238  -0.41027
  Beta  occ. eigenvalues --   -0.40794  -0.40548  -0.39410  -0.39184  -0.39019
  Beta  occ. eigenvalues --   -0.38156  -0.37805  -0.37541  -0.36983  -0.36622
  Beta  occ. eigenvalues --   -0.36260  -0.35958  -0.33226  -0.30712  -0.29645
  Beta  occ. eigenvalues --   -0.29324  -0.27751  -0.26664  -0.25433  -0.24802
  Beta virt. eigenvalues --   -0.18440  -0.16142  -0.15146  -0.13366  -0.13084
  Beta virt. eigenvalues --   -0.12706  -0.09430  -0.07871  -0.07745  -0.05863
  Beta virt. eigenvalues --   -0.05314  -0.04880  -0.04025  -0.02958  -0.02646
  Beta virt. eigenvalues --   -0.02149  -0.01202  -0.00526   0.00027   0.00245
  Beta virt. eigenvalues --    0.01240   0.01382   0.02017   0.02517   0.02907
  Beta virt. eigenvalues --    0.03261   0.03680   0.04006   0.04321   0.04669
  Beta virt. eigenvalues --    0.04879   0.05279   0.05474   0.05779   0.06034
  Beta virt. eigenvalues --    0.06523   0.06620   0.06998   0.07317   0.07536
  Beta virt. eigenvalues --    0.07661   0.07937   0.08402   0.09303   0.09636
  Beta virt. eigenvalues --    0.09853   0.10099   0.10177   0.10602   0.10943
  Beta virt. eigenvalues --    0.11408   0.11766   0.12293   0.12592   0.12970
  Beta virt. eigenvalues --    0.13679   0.14022   0.14714   0.15344   0.16192
  Beta virt. eigenvalues --    0.17250   0.17943   0.18519   0.19189   0.19824
  Beta virt. eigenvalues --    0.20524   0.20760   0.21461   0.22977   0.23058
  Beta virt. eigenvalues --    0.24486   0.25153   0.26486   0.26880   0.27794
  Beta virt. eigenvalues --    0.29258   0.30190   0.30490   0.31444   0.31850
  Beta virt. eigenvalues --    0.34029   0.34393   0.37542   0.38009   0.38499
  Beta virt. eigenvalues --    0.38859   0.39503   0.39623   0.40200   0.41063
  Beta virt. eigenvalues --    0.41409   0.42392   0.42758   0.42892   0.43452
  Beta virt. eigenvalues --    0.43850   0.44032   0.44556   0.44890   0.45077
  Beta virt. eigenvalues --    0.45282   0.45912   0.46472   0.46519   0.47025
  Beta virt. eigenvalues --    0.47338   0.48056   0.48374   0.48760   0.49135
  Beta virt. eigenvalues --    0.49252   0.49821   0.50494   0.50599   0.50787
  Beta virt. eigenvalues --    0.51104   0.51436   0.52093   0.52434   0.52730
  Beta virt. eigenvalues --    0.52993   0.53695   0.54432   0.54691   0.55330
  Beta virt. eigenvalues --    0.56081   0.56732   0.56843   0.58407   0.59039
  Beta virt. eigenvalues --    0.59702   0.60390   0.61927   0.62050   0.62926
  Beta virt. eigenvalues --    0.63675   0.63981   0.64831   0.65600   0.66729
  Beta virt. eigenvalues --    0.66864   0.67423   0.68116   0.68872   0.69680
  Beta virt. eigenvalues --    0.69749   0.70099   0.70718   0.71491   0.72258
  Beta virt. eigenvalues --    0.72325   0.72786   0.73066   0.73229   0.73581
  Beta virt. eigenvalues --    0.73809   0.73928   0.74196   0.74562   0.74771
  Beta virt. eigenvalues --    0.75578   0.75826   0.76002   0.76799   0.77075
  Beta virt. eigenvalues --    0.77905   0.78240   0.78440   0.79612   0.79906
  Beta virt. eigenvalues --    0.80214   0.80477   0.81001   0.81140   0.81708
  Beta virt. eigenvalues --    0.82591   0.83097   0.83326   0.83597   0.83935
  Beta virt. eigenvalues --    0.84344   0.84558   0.84864   0.85267   0.85854
  Beta virt. eigenvalues --    0.86122   0.87063   0.88232   0.88908   0.90367
  Beta virt. eigenvalues --    0.90478   0.92016   0.92504   0.94183   0.95636
  Beta virt. eigenvalues --    0.96118   0.96461   0.96968   0.97605   0.99493
  Beta virt. eigenvalues --    1.00188   1.00256   1.00878   1.02052   1.02639
  Beta virt. eigenvalues --    1.03101   1.04306   1.05333   1.05701   1.07543
  Beta virt. eigenvalues --    1.07933   1.08453   1.09282   1.10222   1.11771
  Beta virt. eigenvalues --    1.12520   1.13380   1.14519   1.15024   1.16657
  Beta virt. eigenvalues --    1.17302   1.18025   1.18953   1.19080   1.20079
  Beta virt. eigenvalues --    1.20364   1.21659   1.22571   1.23920   1.24447
  Beta virt. eigenvalues --    1.26631   1.27006   1.27211   1.28088   1.28497
  Beta virt. eigenvalues --    1.29715   1.30135   1.30737   1.31512   1.32555
  Beta virt. eigenvalues --    1.33440   1.34180   1.34781   1.34957   1.36416
  Beta virt. eigenvalues --    1.36899   1.37297   1.38224   1.39064   1.40110
  Beta virt. eigenvalues --    1.40768   1.41723   1.42918   1.45378   1.46155
  Beta virt. eigenvalues --    1.48295   1.49452   1.51213   1.52601   1.54418
  Beta virt. eigenvalues --    1.55670   1.56533   1.56916   1.59418   1.60107
  Beta virt. eigenvalues --    1.60156   1.61335   1.61937   1.62054   1.63453
  Beta virt. eigenvalues --    1.64125   1.65041   1.65925   1.66443   1.66854
  Beta virt. eigenvalues --    1.67174   1.67631   1.68143   1.68810   1.69196
  Beta virt. eigenvalues --    1.69468   1.70281   1.70471   1.70746   1.71246
  Beta virt. eigenvalues --    1.71849   1.73681   1.74052   1.75166   1.75670
  Beta virt. eigenvalues --    1.76679   1.77176   1.78060   1.80089   1.80525
  Beta virt. eigenvalues --    1.81758   1.82069   1.82439   1.82683   1.84002
  Beta virt. eigenvalues --    1.84659   1.84902   1.85209   1.85687   1.86501
  Beta virt. eigenvalues --    1.86859   1.87953   1.88304   1.89655   1.90237
  Beta virt. eigenvalues --    1.90303   1.90950   1.92300   1.92412   1.93992
  Beta virt. eigenvalues --    1.94885   1.95411   1.96119   1.97459   1.97720
  Beta virt. eigenvalues --    1.98700   2.01192   2.01347   2.01858   2.03609
  Beta virt. eigenvalues --    2.03984   2.04490   2.04819   2.05357   2.05980
  Beta virt. eigenvalues --    2.07667   2.07939   2.08995   2.09299   2.10129
  Beta virt. eigenvalues --    2.10380   2.10823   2.11900   2.12346   2.12888
  Beta virt. eigenvalues --    2.13448   2.13761   2.13818   2.14118   2.14562
  Beta virt. eigenvalues --    2.15138   2.16376   2.17318   2.17547   2.18006
  Beta virt. eigenvalues --    2.18532   2.19842   2.20493   2.20951   2.22914
  Beta virt. eigenvalues --    2.23981   2.26899   2.27934   2.28850   2.30613
  Beta virt. eigenvalues --    2.31141   2.31415   2.34354   2.34720   2.36279
  Beta virt. eigenvalues --    2.36966   2.37702   2.37744   2.38017   2.38455
  Beta virt. eigenvalues --    2.39425   2.40145   2.40348   2.42078   2.42964
  Beta virt. eigenvalues --    2.44150   2.44634   2.46005   2.47012   2.48301
  Beta virt. eigenvalues --    2.48893   2.49573   2.50696   2.51629   2.53033
  Beta virt. eigenvalues --    2.53735   2.54249   2.54483   2.54896   2.56214
  Beta virt. eigenvalues --    2.57056   2.58185   2.59458   2.60480   2.61332
  Beta virt. eigenvalues --    2.62644   2.62970   2.64064   2.65781   2.66976
  Beta virt. eigenvalues --    2.68743   2.69968   2.70323   2.72025   2.72888
  Beta virt. eigenvalues --    2.73972   2.74602   2.74859   2.76699   2.77402
  Beta virt. eigenvalues --    2.83608   2.86236   2.90215   2.95677   2.95921
  Beta virt. eigenvalues --    2.97057   2.98745   3.03682   3.08955   3.09583
  Beta virt. eigenvalues --    3.10246   3.22978   3.25974   3.31773   3.32962
  Beta virt. eigenvalues --    3.65737   3.92655   3.96515   3.98499   3.99880
  Beta virt. eigenvalues --    4.02245   4.04163   4.05085   4.06899   4.07105
  Beta virt. eigenvalues --    4.07876   4.09077   4.10170   4.12907   4.15246
  Beta virt. eigenvalues --    4.17249   4.20173   4.22336   4.22628   4.24299
  Beta virt. eigenvalues --    4.25284   4.29478   4.32961   4.34760   4.35734
  Beta virt. eigenvalues --    4.43624   4.45225   4.51302   4.54413   4.55219
  Beta virt. eigenvalues --    4.60952   4.63071   4.66431  26.26607
          Condensed to atoms (all electrons):
          Atomic-Atomic Spin Densities.
 Mulliken charges and spin densities:
               1          2
     1  O   -0.719046   0.023311
     2  H    0.423708   0.002307
     3  H    0.425268   0.001614
     4  Co   1.055322   1.032220
     5  N   -0.657539  -0.005913
     6  C    0.336388  -0.017451
     7  C   -0.378304   0.000812
     8  C   -0.378510   0.001729
     9  C    0.357826  -0.030744
    10  C   -0.324263   0.012643
    11  C    0.356609  -0.018259
    12  N   -0.572821  -0.010048
    13  C    0.015202  -0.001672
    14  C   -0.327019  -0.000177
    15  C   -0.376691   0.000443
    16  C    0.003582  -0.002429
    17  N   -0.574115  -0.009415
    18  C    0.347237  -0.019080
    19  C   -0.375802   0.000639
    20  C   -0.331819  -0.000249
    21  C   -0.306757   0.014878
    22  C    0.357260  -0.030556
    23  N   -0.657656  -0.005540
    24  C    0.327759  -0.016452
    25  C   -0.377063   0.000863
    26  C   -0.377600   0.001772
    27  C   -0.323662   0.011004
    28  C    0.328273   0.004377
    29  C    0.260099   0.000595
    30  N   -0.566478   0.070629
    31  C    0.241706  -0.006624
    32  N   -0.680698   0.000266
    33  C   -0.195975   0.001219
    34  C   -0.165285  -0.001054
    35  C   -0.163099   0.000527
    36  C   -0.178785  -0.000369
    37  H    0.198582   0.000575
    38  H    0.189031   0.000799
    39  H    0.165332  -0.000448
    40  H    0.167930  -0.000378
    41  H    0.166434  -0.000463
    42  H    0.175964  -0.000010
    43  H    0.182025   0.000061
    44  H    0.198652  -0.001440
    45  H    0.189578  -0.000587
    46  H    0.195750  -0.000963
    47  H    0.195587  -0.000869
    48  H    0.191811  -0.000797
    49  H    0.172575   0.000044
    50  H    0.181168  -0.000072
    51  H    0.195455  -0.001089
    52  H    0.186638  -0.000135
    53  H    0.195468  -0.000111
    54  H    0.201405  -0.000916
    55  H    0.204587  -0.001639
    56  H    0.191240  -0.000369
    57  H    0.195361  -0.001049
    58  H    0.198482   0.001237
    59  H    0.357804   0.001889
    60  H    0.171318   0.000372
    61  H    0.162287   0.000011
    62  H    0.171517  -0.000027
    63  H    0.170770   0.000561
 Sum of Mulliken charges =   1.00000   1.00000
 Mulliken charges and spin densities with hydrogens summed into heavy atoms:
               1          2
     1  O    0.129930   0.027231
     4  Co   1.055322   1.032220
     5  N   -0.657539  -0.005913
     6  C    0.336388  -0.017451
     7  C    0.014341  -0.000474
     8  C    0.015503  -0.000760
     9  C    0.357826  -0.030744
    10  C   -0.157829   0.012180
    11  C    0.356609  -0.018259
    12  N   -0.572821  -0.010048
    13  C    0.213785  -0.001097
    14  C    0.026724  -0.000205
    15  C    0.005402  -0.000781
    16  C    0.192613  -0.001630
    17  N   -0.574115  -0.009415
    18  C    0.347237  -0.019080
    19  C    0.009363  -0.000818
    20  C    0.026169  -0.000198
    21  C   -0.141425   0.014430
    22  C    0.357260  -0.030556
    23  N   -0.657656  -0.005540
    24  C    0.327759  -0.016452
    25  C    0.014155  -0.000211
    26  C    0.018797  -0.000664
    27  C   -0.155732   0.010626
    28  C    0.328273   0.004377
    29  C    0.260099   0.000595
    30  N   -0.566478   0.070629
    31  C    0.440188  -0.005386
    32  N   -0.322895   0.002155
    33  C   -0.024658   0.001590
    34  C   -0.002997  -0.001042
    35  C    0.008419   0.000500
    36  C   -0.008015   0.000192
 APT charges:
               1
     1  O   -0.398529
     2  H    0.205439
     3  H    0.211188
     4  Co   0.352511
     5  N   -0.475106
     6  C    0.507637
     7  C    0.034084
     8  C    0.035116
     9  C    0.462897
    10  C   -0.358244
    11  C    0.212321
    12  N   -0.208417
    13  C    0.262763
    14  C    0.080887
    15  C    0.075149
    16  C    0.261417
    17  N   -0.208051
    18  C    0.217006
    19  C    0.075798
    20  C    0.079843
    21  C   -0.436823
    22  C    0.459189
    23  N   -0.482507
    24  C    0.502445
    25  C    0.036841
    26  C    0.041864
    27  C   -0.368535
    28  C    0.097847
    29  C    0.076660
    30  N   -0.312771
    31  C    0.276485
    32  N   -0.420067
    33  C    0.010294
    34  C   -0.033379
    35  C   -0.004695
    36  C    0.013822
    37  H   -0.066761
    38  H   -0.071137
    39  H    0.028430
    40  H    0.035274
    41  H    0.032760
    42  H   -0.018539
    43  H   -0.017103
    44  H   -0.020608
    45  H   -0.013903
    46  H   -0.023085
    47  H   -0.024571
    48  H   -0.010348
    49  H   -0.021355
    50  H   -0.018490
    51  H   -0.029441
    52  H   -0.013427
    53  H   -0.004607
    54  H   -0.019176
    55  H   -0.019790
    56  H   -0.009636
    57  H   -0.011870
    58  H    0.089020
    59  H    0.216238
    60  H    0.048650
    61  H    0.022767
    62  H    0.028324
    63  H    0.029997
 Sum of APT charges =   0.99999
 APT charges with hydrogens summed into heavy atoms:
               1
     1  O    0.018097
     4  Co   0.352511
     5  N   -0.475106
     6  C    0.507637
     7  C    0.005273
     8  C    0.002638
     9  C    0.462897
    10  C   -0.325484
    11  C    0.212321
    12  N   -0.208417
    13  C    0.196002
    14  C    0.041043
    15  C    0.032281
    16  C    0.190279
    17  N   -0.208051
    18  C    0.217006
    19  C    0.037325
    20  C    0.044201
    21  C   -0.408394
    22  C    0.459189
    23  N   -0.482507
    24  C    0.502445
    25  C    0.009149
    26  C    0.011726
    27  C   -0.333261
    28  C    0.097847
    29  C    0.076660
    30  N   -0.312771
    31  C    0.365505
    32  N   -0.203829
    33  C    0.058945
    34  C   -0.010612
    35  C    0.023630
    36  C    0.043820
 Electronic spatial extent (au):  <R**2>=          11746.2746
 Charge=              1.0000 electrons
 Dipole moment (field-independent basis, Debye):
    X=              1.6379    Y=             -0.9929    Z=              0.3397  Tot=              1.9452
 Quadrupole moment (field-independent basis, Debye-Ang):
   XX=           -159.7639   YY=           -161.6794   ZZ=           -145.8089
   XY=             -3.7997   XZ=              5.8163   YZ=             -1.1481
 Traceless Quadrupole moment (field-independent basis, Debye-Ang):
   XX=             -4.0131   YY=             -5.9287   ZZ=              9.9418
   XY=             -3.7997   XZ=              5.8163   YZ=             -1.1481
 Octapole moment (field-independent basis, Debye-Ang**2):
  XXX=             27.7644  YYY=              4.9080  ZZZ=             26.6030  XYY=             50.1047
  XXY=             -9.8673  XXZ=             16.0744  XZZ=            -24.0641  YZZ=            -35.7013
  YYZ=            -34.8988  XYZ=              7.3142
 Hexadecapole moment (field-independent basis, Debye-Ang**3):
 XXXX=          -5427.7404 YYYY=          -4551.8486 ZZZZ=          -3504.8295 XXXY=            -24.5080
 XXXZ=            -63.6124 YYYX=            -69.1611 YYYZ=              6.9385 ZZZX=           -142.7414
 ZZZY=            -96.3996 XXYY=          -1721.1567 XXZZ=          -1483.7399 YYZZ=          -1493.4767
 XXYZ=              8.8387 YYXZ=            100.4912 ZZXY=             36.9666
 N-N= 4.595339646121D+03 E-N=-1.573889884118D+04  KE= 2.780421897637D+03
  Exact polarizability: 390.124 -14.003 367.966  64.396   2.684 317.544
 Approx polarizability: 826.268 -43.672 805.779 236.919  -0.670 660.598
                          Isotropic Fermi Contact Couplings
        Atom                 a.u.       MegaHertz       Gauss      10(-4) cm-1
     1  O(17)              0.05987     -36.29041     -12.94932     -12.10518
     2  H(1)               0.00009       0.38770       0.13834       0.12932
     3  H(1)              -0.00016      -0.73105      -0.26086      -0.24385
     4  Co(59)             0.21199     224.26522      80.02340      74.80682
     5  N(14)             -0.00472      -1.52615      -0.54457      -0.50907
     6  C(13)             -0.00256      -2.88036      -1.02778      -0.96078
     7  C(13)              0.00022       0.25264       0.09015       0.08427
     8  C(13)              0.00065       0.72617       0.25911       0.24222
     9  C(13)             -0.00429      -4.81771      -1.71908      -1.60701
    10  C(13)              0.00257       2.89474       1.03291       0.96558
    11  C(13)             -0.00225      -2.52477      -0.90090      -0.84217
    12  N(14)             -0.00362      -1.16903      -0.41714      -0.38995
    13  C(13)              0.00017       0.19364       0.06909       0.06459
    14  C(13)             -0.00008      -0.09348      -0.03335      -0.03118
    15  C(13)              0.00016       0.17721       0.06323       0.05911
    16  C(13)              0.00015       0.17266       0.06161       0.05759
    17  N(14)             -0.00530      -1.71279      -0.61117      -0.57133
    18  C(13)             -0.00185      -2.08423      -0.74371      -0.69523
    19  C(13)              0.00018       0.19825       0.07074       0.06613
    20  C(13)              0.00005       0.05470       0.01952       0.01825
    21  C(13)              0.00276       3.09899       1.10580       1.03371
    22  C(13)             -0.00422      -4.74331      -1.69253      -1.58220
    23  N(14)             -0.00297      -0.95930      -0.34230      -0.31999
    24  C(13)             -0.00211      -2.36697      -0.84459      -0.78954
    25  C(13)              0.00035       0.39735       0.14178       0.13254
    26  C(13)              0.00061       0.68767       0.24538       0.22938
    27  C(13)              0.00222       2.49663       0.89086       0.83278
    28  C(13)              0.00392       4.41212       1.57436       1.47173
    29  C(13)              0.00308       3.45710       1.23358       1.15316
    30  N(14)              0.15172      49.02198      17.49226      16.35197
    31  C(13)              0.00245       2.75643       0.98356       0.91945
    32  N(14)              0.00739       2.38689       0.85170       0.79618
    33  C(13)              0.00037       0.41067       0.14654       0.13698
    34  C(13)             -0.00016      -0.17937      -0.06400      -0.05983
    35  C(13)              0.00012       0.13423       0.04790       0.04477
    36  C(13)              0.00052       0.57944       0.20676       0.19328
    37  H(1)               0.00019       0.86021       0.30694       0.28693
    38  H(1)               0.00029       1.28514       0.45857       0.42868
    39  H(1)              -0.00014      -0.63316      -0.22593      -0.21120
    40  H(1)              -0.00013      -0.56536      -0.20173      -0.18858
    41  H(1)              -0.00015      -0.68614      -0.24483      -0.22887
    42  H(1)              -0.00001      -0.02268      -0.00809      -0.00756
    43  H(1)               0.00000      -0.00812      -0.00290      -0.00271
    44  H(1)              -0.00079      -3.52126      -1.25647      -1.17456
    45  H(1)              -0.00030      -1.36087      -0.48559      -0.45394
    46  H(1)              -0.00048      -2.14634      -0.76587      -0.71594
    47  H(1)              -0.00048      -2.14569      -0.76564      -0.71573
    48  H(1)              -0.00045      -1.99477      -0.71178      -0.66538
    49  H(1)               0.00002       0.07201       0.02570       0.02402
    50  H(1)              -0.00004      -0.16203      -0.05782      -0.05405
    51  H(1)              -0.00057      -2.53029      -0.90287      -0.84401
    52  H(1)              -0.00013      -0.59802      -0.21339      -0.19948
    53  H(1)              -0.00014      -0.63613      -0.22699      -0.21219
    54  H(1)              -0.00047      -2.09311      -0.74688      -0.69819
    55  H(1)              -0.00086      -3.84830      -1.37317      -1.28365
    56  H(1)              -0.00025      -1.12582      -0.40172      -0.37553
    57  H(1)              -0.00058      -2.57570      -0.91907      -0.85916
    58  H(1)               0.00032       1.41882       0.50627       0.47327
    59  H(1)               0.00059       2.64354       0.94328       0.88179
    60  H(1)               0.00018       0.81812       0.29192       0.27289
    61  H(1)               0.00000       0.00527       0.00188       0.00176
    62  H(1)              -0.00001      -0.05375      -0.01918      -0.01793
    63  H(1)               0.00029       1.31373       0.46877       0.43821
 --------------------------------------------------------
       Center         ----  Spin Dipole Couplings  ----
                      3XX-RR        3YY-RR        3ZZ-RR
 --------------------------------------------------------
     1   Atom       -0.009484     -0.040934      0.050418
     2   Atom        0.001871     -0.004472      0.002600
     3   Atom       -0.005298     -0.009709      0.015007
     4   Atom       -0.071884     -1.481164      1.553047
     5   Atom        0.006264     -0.000232     -0.006032
     6   Atom        0.003154      0.007787     -0.010941
     7   Atom        0.000485      0.000501     -0.000986
     8   Atom       -0.001136      0.002639     -0.001503
     9   Atom       -0.003152      0.025296     -0.022144
    10   Atom        0.005420     -0.009927      0.004507
    11   Atom        0.002712      0.005627     -0.008339
    12   Atom        0.009912     -0.012516      0.002604
    13   Atom       -0.002269      0.006559     -0.004290
    14   Atom       -0.000728      0.001635     -0.000906
    15   Atom        0.001096     -0.000937     -0.000158
    16   Atom       -0.004668      0.009784     -0.005116
    17   Atom       -0.000434     -0.000248      0.000682
    18   Atom       -0.002744      0.009949     -0.007205
    19   Atom       -0.000150      0.000967     -0.000818
    20   Atom       -0.001657      0.003551     -0.001894
    21   Atom       -0.004506      0.003005      0.001501
    22   Atom       -0.005541      0.020386     -0.014845
    23   Atom       -0.003173     -0.011773      0.014946
    24   Atom       -0.001077      0.003268     -0.002192
    25   Atom        0.000542     -0.001279      0.000736
    26   Atom       -0.000414      0.000929     -0.000515
    27   Atom        0.004823     -0.007913      0.003091
    28   Atom       -0.002062     -0.004202      0.006264
    29   Atom        0.014191     -0.011547     -0.002643
    30   Atom       -0.037743     -0.065960      0.103703
    31   Atom        0.001835     -0.016951      0.015117
    32   Atom        0.001368     -0.009388      0.008020
    33   Atom        0.005047     -0.002675     -0.002372
    34   Atom        0.002480     -0.002145     -0.000335
    35   Atom        0.000890     -0.000503     -0.000387
    36   Atom        0.001511     -0.002094      0.000583
    37   Atom       -0.001533      0.005703     -0.004170
    38   Atom       -0.003482      0.005934     -0.002453
    39   Atom       -0.002014      0.003465     -0.001451
    40   Atom        0.001187     -0.001816      0.000629
    41   Atom        0.002337     -0.002369      0.000033
    42   Atom       -0.001728      0.003018     -0.001291
    43   Atom       -0.000952      0.002110     -0.001158
    44   Atom       -0.000907      0.001825     -0.000918
    45   Atom       -0.000304      0.000801     -0.000497
    46   Atom       -0.000115     -0.000921      0.001036
    47   Atom        0.000238      0.000832     -0.001070
    48   Atom       -0.000438      0.000502     -0.000064
    49   Atom       -0.001287      0.001229      0.000058
    50   Atom       -0.000434      0.001208     -0.000774
    51   Atom        0.001276     -0.000427     -0.000849
    52   Atom        0.000497     -0.000518      0.000021
    53   Atom        0.000694     -0.000834      0.000140
    54   Atom        0.000625      0.000297     -0.000922
    55   Atom        0.000089      0.000530     -0.000618
    56   Atom        0.000135      0.000305     -0.000441
    57   Atom       -0.000529      0.001486     -0.000957
    58   Atom       -0.003376     -0.004667      0.008043
    59   Atom       -0.000868     -0.001346      0.002214
    60   Atom        0.006940     -0.003801     -0.003139
    61   Atom        0.001463     -0.000798     -0.000665
    62   Atom        0.000654     -0.000484     -0.000171
    63   Atom        0.000157     -0.000659      0.000502
 --------------------------------------------------------
                        XY            XZ            YZ
 --------------------------------------------------------
     1   Atom        0.048280     -0.091533     -0.064713
     2   Atom       -0.005394     -0.011426      0.002778
     3   Atom        0.000299      0.000464     -0.005072
     4   Atom        0.320188     -1.846261     -0.415664
     5   Atom       -0.018174     -0.011220      0.001332
     6   Atom       -0.007506      0.016975     -0.000717
     7   Atom       -0.002156      0.000911     -0.001017
     8   Atom       -0.001451      0.000179     -0.000430
     9   Atom       -0.003805      0.022822     -0.000501
    10   Atom       -0.000784     -0.002371     -0.001867
    11   Atom        0.002973      0.020679      0.002211
    12   Atom        0.013148     -0.001119      0.005193
    13   Atom        0.005785      0.001132      0.004176
    14   Atom        0.002342      0.000849      0.001970
    15   Atom        0.001419      0.001734      0.000980
    16   Atom       -0.003838     -0.001396      0.000751
    17   Atom       -0.004607     -0.008853     -0.016336
    18   Atom       -0.009463      0.019006     -0.000665
    19   Atom       -0.001989      0.000868     -0.001275
    20   Atom       -0.001175     -0.000290     -0.000601
    21   Atom        0.001674     -0.008140      0.002661
    22   Atom        0.003680      0.026504      0.006787
    23   Atom        0.008357      0.001751      0.012772
    24   Atom       -0.000182      0.020010      0.002838
    25   Atom        0.001130      0.002173      0.001357
    26   Atom        0.001689      0.001142      0.001744
    27   Atom       -0.001525     -0.000961     -0.003779
    28   Atom        0.000639     -0.004341     -0.001680
    29   Atom       -0.000220     -0.010135     -0.000947
    30   Atom        0.017864     -0.105305     -0.025052
    31   Atom       -0.001891      0.004181     -0.006286
    32   Atom       -0.000218     -0.004678     -0.002690
    33   Atom       -0.000231     -0.001467      0.000018
    34   Atom       -0.000149     -0.000924     -0.000312
    35   Atom        0.000078     -0.000909      0.000031
    36   Atom        0.000081     -0.002076     -0.000340
    37   Atom        0.005493     -0.000674     -0.000813
    38   Atom       -0.002891     -0.001587      0.004364
    39   Atom        0.000741     -0.000496      0.001148
    40   Atom       -0.001199      0.002263     -0.001241
    41   Atom       -0.000589      0.002272     -0.000469
    42   Atom       -0.000286     -0.000030     -0.001161
    43   Atom       -0.000795     -0.000086      0.000005
    44   Atom       -0.000835      0.000194     -0.000730
    45   Atom       -0.001186      0.000637     -0.001107
    46   Atom        0.000645      0.001522      0.000964
    47   Atom       -0.001785      0.000507     -0.000606
    48   Atom        0.000922      0.000604      0.001094
    49   Atom        0.001298      0.000861      0.002244
    50   Atom        0.001356      0.000425      0.000919
    51   Atom        0.001501      0.001099      0.000589
    52   Atom        0.000926      0.001265      0.000799
    53   Atom        0.000725      0.001311      0.000529
    54   Atom       -0.001661      0.000483     -0.000460
    55   Atom        0.001464      0.000792      0.000931
    56   Atom       -0.001261      0.000760     -0.000969
    57   Atom       -0.000972     -0.000040     -0.000132
    58   Atom       -0.000702      0.003400     -0.002905
    59   Atom        0.000079     -0.000663     -0.000666
    60   Atom       -0.000752      0.000197     -0.000216
    61   Atom       -0.000076     -0.000388     -0.000004
    62   Atom        0.000033     -0.000588     -0.000021
    63   Atom        0.000107     -0.000865     -0.000171
 --------------------------------------------------------


 ---------------------------------------------------------------------------------
              Anisotropic Spin Dipole Couplings in Principal Axis System
 ---------------------------------------------------------------------------------

       Atom             a.u.   MegaHertz   Gauss  10(-4) cm-1        Axes

              Baa    -0.0765     5.536     1.975     1.847  0.8024 -0.5019  0.3228
     1 O(17)  Bbb    -0.0743     5.374     1.918     1.793  0.2487  0.7730  0.5837
              Bcc     0.1508   -10.910    -3.893    -3.639 -0.5425 -0.3881  0.7450
 
              Baa    -0.0101    -5.382    -1.921    -1.795  0.7193  0.4154  0.5568
     2 H(1)   Bbb    -0.0053    -2.807    -1.001    -0.936 -0.1238  0.8653 -0.4857
              Bcc     0.0153     8.189     2.922     2.731  0.6836 -0.2805 -0.6738
 
              Baa    -0.0107    -5.728    -2.044    -1.911 -0.0704  0.9785  0.1941
     3 H(1)   Bbb    -0.0053    -2.816    -1.005    -0.939  0.9973  0.0727 -0.0046
              Bcc     0.0160     8.545     3.049     2.850  0.0186 -0.1932  0.9810
 
              Baa    -1.5508  -195.834   -69.878   -65.323 -0.1881  0.9819  0.0196
     4 Co(59) Bbb    -1.2705  -160.438   -57.248   -53.516  0.8181  0.1456  0.5564
              Bcc     2.8213   356.272   127.127   118.840 -0.5435 -0.1207  0.8307
 
              Baa    -0.0190    -0.733    -0.261    -0.244  0.6415  0.5861  0.4949
     5 N(14)  Bbb    -0.0055    -0.212    -0.076    -0.071 -0.1061 -0.5712  0.8140
              Bcc     0.0245     0.945     0.337     0.315  0.7598 -0.5746 -0.3042
 
              Baa    -0.0227    -3.047    -1.087    -1.016 -0.5690 -0.1209  0.8134
     6 C(13)  Bbb     0.0040     0.543     0.194     0.181  0.3804  0.8383  0.3907
              Bcc     0.0187     2.504     0.894     0.835  0.7291 -0.5317  0.4310
 
              Baa    -0.0017    -0.226    -0.081    -0.075  0.6239  0.7370  0.2600
     7 C(13)  Bbb    -0.0014    -0.191    -0.068    -0.064 -0.4087  0.0241  0.9123
              Bcc     0.0031     0.416     0.149     0.139 -0.6661  0.6755 -0.3163
 
              Baa    -0.0016    -0.220    -0.079    -0.073  0.9051  0.2743 -0.3249
     8 C(13)  Bbb    -0.0015    -0.206    -0.074    -0.069  0.2790  0.1936  0.9406
              Bcc     0.0032     0.426     0.152     0.142 -0.3209  0.9420 -0.0987
 
              Baa    -0.0374    -5.020    -1.791    -1.675 -0.5563 -0.0271  0.8306
     9 C(13)  Bbb     0.0112     1.507     0.538     0.503  0.8036  0.2368  0.5460
              Bcc     0.0262     3.513     1.254     1.172 -0.2115  0.9712 -0.1099
 
              Baa    -0.0102    -1.374    -0.490    -0.458  0.0701  0.9882  0.1364
    10 C(13)  Bbb     0.0028     0.381     0.136     0.127  0.6444 -0.1492  0.7500
              Bcc     0.0074     0.993     0.354     0.331  0.7615  0.0353 -0.6472
 
              Baa    -0.0242    -3.250    -1.160    -1.084 -0.6092  0.0020  0.7930
    11 C(13)  Bbb     0.0046     0.623     0.222     0.208 -0.2024  0.9665 -0.1579
              Bcc     0.0196     2.627     0.937     0.876  0.7668  0.2567  0.5884
 
              Baa    -0.0198    -0.763    -0.272    -0.255 -0.4015  0.8876 -0.2259
    12 N(14)  Bbb     0.0037     0.143     0.051     0.048 -0.1777  0.1665  0.9699
              Bcc     0.0161     0.620     0.221     0.207  0.8985  0.4295  0.0909
 
              Baa    -0.0061    -0.824    -0.294    -0.275  0.4687 -0.4612  0.7534
    13 C(13)  Bbb    -0.0045    -0.603    -0.215    -0.201  0.7807 -0.1829 -0.5976
              Bcc     0.0106     1.427     0.509     0.476  0.4134  0.8683  0.2743
 
              Baa    -0.0023    -0.313    -0.112    -0.104  0.6485 -0.6095  0.4560
    14 C(13)  Bbb    -0.0017    -0.224    -0.080    -0.075 -0.6036 -0.0468  0.7959
              Bcc     0.0040     0.537     0.191     0.179  0.4637  0.7914  0.3982
 
              Baa    -0.0017    -0.226    -0.081    -0.075 -0.3466  0.9174 -0.1955
    15 C(13)  Bbb    -0.0014    -0.184    -0.066    -0.062 -0.5605 -0.0354  0.8274
              Bcc     0.0031     0.410     0.146     0.137  0.7522  0.3963  0.5265
 
              Baa    -0.0066    -0.885    -0.316    -0.295  0.7559  0.1479  0.6378
    16 C(13)  Bbb    -0.0042    -0.566    -0.202    -0.189 -0.6068 -0.2075  0.7673
              Bcc     0.0108     1.451     0.518     0.484 -0.2458  0.9670  0.0671
 
              Baa    -0.0206    -0.796    -0.284    -0.265  0.4290  0.6220  0.6550
    17 N(14)  Bbb     0.0034     0.132     0.047     0.044  0.8797 -0.4522 -0.1468
              Bcc     0.0172     0.664     0.237     0.222 -0.2049 -0.6392  0.7412
 
              Baa    -0.0251    -3.369    -1.202    -1.124 -0.6789 -0.1697  0.7144
    18 C(13)  Bbb     0.0050     0.666     0.238     0.222  0.3658  0.7654  0.5295
              Bcc     0.0201     2.703     0.965     0.902  0.6366 -0.6208  0.4575
 
              Baa    -0.0017    -0.225    -0.080    -0.075  0.7067  0.6573  0.2616
    19 C(13)  Bbb    -0.0014    -0.189    -0.067    -0.063 -0.4364  0.1140  0.8925
              Bcc     0.0031     0.414     0.148     0.138 -0.5568  0.7449 -0.3674
 
              Baa    -0.0023    -0.313    -0.112    -0.105  0.6646  0.2060  0.7182
    20 C(13)  Bbb    -0.0015    -0.204    -0.073    -0.068  0.7191  0.0848 -0.6897
              Bcc     0.0039     0.517     0.184     0.172 -0.2031  0.9749 -0.0918
 
              Baa    -0.0108    -1.448    -0.517    -0.483  0.7946 -0.2066  0.5709
    21 C(13)  Bbb     0.0032     0.436     0.155     0.145  0.3323  0.9349 -0.1242
              Bcc     0.0075     1.012     0.361     0.338 -0.5081  0.2885  0.8115
 
              Baa    -0.0372    -4.998    -1.783    -1.667 -0.6372 -0.0499  0.7691
    22 C(13)  Bbb     0.0112     1.503     0.536     0.501  0.6299 -0.6087  0.4824
              Bcc     0.0260     3.495     1.247     1.166  0.4441  0.7918  0.4193
 
              Baa    -0.0200    -0.771    -0.275    -0.257 -0.3998  0.8672 -0.2969
    23 N(14)  Bbb    -0.0011    -0.041    -0.014    -0.014  0.8940  0.2974 -0.3353
              Bcc     0.0210     0.812     0.290     0.271  0.2025  0.3995  0.8941
 
              Baa    -0.0218    -2.930    -1.046    -0.977 -0.6918 -0.0860  0.7170
    24 C(13)  Bbb     0.0032     0.433     0.155     0.145 -0.1464  0.9890 -0.0225
              Bcc     0.0186     2.497     0.891     0.833  0.7071  0.1205  0.6967
 
              Baa    -0.0020    -0.263    -0.094    -0.088 -0.0455  0.9067 -0.4193
    25 C(13)  Bbb    -0.0015    -0.202    -0.072    -0.067  0.7655 -0.2381 -0.5978
              Bcc     0.0035     0.465     0.166     0.155  0.6418  0.3482  0.6833
 
              Baa    -0.0017    -0.226    -0.081    -0.075 -0.0644 -0.5254  0.8484
    26 C(13)  Bbb    -0.0016    -0.208    -0.074    -0.069  0.8705 -0.4452 -0.2096
              Bcc     0.0032     0.434     0.155     0.145  0.4879  0.7251  0.4860
 
              Baa    -0.0093    -1.248    -0.445    -0.416  0.1225  0.9466  0.2982
    27 C(13)  Bbb     0.0040     0.543     0.194     0.181  0.4197 -0.3216  0.8488
              Bcc     0.0053     0.705     0.252     0.235  0.8994  0.0212 -0.4367
 
              Baa    -0.0045    -0.599    -0.214    -0.200  0.0618  0.9820  0.1787
    28 C(13)  Bbb    -0.0039    -0.524    -0.187    -0.175  0.9197 -0.1256  0.3719
              Bcc     0.0084     1.123     0.401     0.375 -0.3876 -0.1414  0.9109
 
              Baa    -0.0118    -1.578    -0.563    -0.526  0.0847  0.9770  0.1957
    29 C(13)  Bbb    -0.0072    -0.965    -0.344    -0.322  0.4167 -0.2132  0.8837
              Bcc     0.0189     2.543     0.907     0.848  0.9051  0.0067 -0.4251
 
              Baa    -0.0945    -3.645    -1.301    -1.216  0.8802 -0.1579  0.4476
    30 N(14)  Bbb    -0.0694    -2.676    -0.955    -0.892  0.0791  0.9786  0.1898
              Bcc     0.1639     6.321     2.255     2.108 -0.4681 -0.1316  0.8738
 
              Baa    -0.0182    -2.442    -0.871    -0.815  0.0555  0.9824  0.1784
    31 C(13)  Bbb     0.0006     0.084     0.030     0.028  0.9604 -0.0036 -0.2787
              Bcc     0.0176     2.358     0.841     0.787  0.2732 -0.1868  0.9437
 
              Baa    -0.0099    -0.381    -0.136    -0.127  0.0902  0.9811  0.1710
    32 N(14)  Bbb    -0.0008    -0.032    -0.011    -0.011  0.8919 -0.1560  0.4245
              Bcc     0.0107     0.413     0.147     0.138 -0.4431 -0.1143  0.8891
 
              Baa    -0.0027    -0.362    -0.129    -0.121  0.1174  0.8678  0.4828
    33 C(13)  Bbb    -0.0026    -0.354    -0.126    -0.118  0.1485 -0.4960  0.8555
              Bcc     0.0053     0.716     0.255     0.239  0.9819 -0.0287 -0.1871
 
              Baa    -0.0022    -0.298    -0.106    -0.099  0.0697  0.9781  0.1962
    34 C(13)  Bbb    -0.0005    -0.072    -0.026    -0.024  0.2769 -0.2079  0.9382
              Bcc     0.0028     0.370     0.132     0.123  0.9584 -0.0111 -0.2853
 
              Baa    -0.0009    -0.117    -0.042    -0.039  0.4580 -0.1708  0.8724
    35 C(13)  Bbb    -0.0005    -0.066    -0.024    -0.022  0.0527  0.9849  0.1651
              Bcc     0.0014     0.183     0.065     0.061  0.8874  0.0297 -0.4601
 
              Baa    -0.0022    -0.289    -0.103    -0.096  0.0832  0.9792  0.1848
    36 C(13)  Bbb    -0.0010    -0.139    -0.050    -0.046  0.6230 -0.1959  0.7573
              Bcc     0.0032     0.428     0.153     0.143  0.7778  0.0522 -0.6264
 
              Baa    -0.0046    -2.461    -0.878    -0.821  0.7814 -0.3769  0.4973
    37 H(1)   Bbb    -0.0041    -2.206    -0.787    -0.736 -0.4060  0.2981  0.8639
              Bcc     0.0087     4.666     1.665     1.556  0.4739  0.8769 -0.0799
 
              Baa    -0.0047    -2.485    -0.887    -0.829  0.7130 -0.0918  0.6951
    38 H(1)   Bbb    -0.0040    -2.146    -0.766    -0.716  0.6508  0.4553 -0.6075
              Bcc     0.0087     4.631     1.653     1.545 -0.2607  0.8856  0.3844
 
              Baa    -0.0026    -1.367    -0.488    -0.456  0.7959 -0.2063  0.5692
    39 H(1)   Bbb    -0.0012    -0.654    -0.233    -0.218 -0.5959 -0.1010  0.7967
              Bcc     0.0038     2.020     0.721     0.674  0.1069  0.9733  0.2033
 
              Baa    -0.0024    -1.263    -0.451    -0.421  0.1343  0.9473  0.2908
    40 H(1)   Bbb    -0.0014    -0.723    -0.258    -0.241 -0.6911 -0.1208  0.7126
              Bcc     0.0037     1.986     0.709     0.663  0.7102 -0.2967  0.6385
 
              Baa    -0.0025    -1.316    -0.470    -0.439  0.0588  0.9895  0.1320
    41 H(1)   Bbb    -0.0014    -0.723    -0.258    -0.241 -0.5317 -0.0809  0.8431
              Bcc     0.0038     2.039     0.728     0.680  0.8449 -0.1198  0.5214
 
              Baa    -0.0018    -0.955    -0.341    -0.318  0.8999  0.1522  0.4087
    42 H(1)   Bbb    -0.0015    -0.820    -0.292    -0.273 -0.4328  0.1971  0.8797
              Bcc     0.0033     1.774     0.633     0.592 -0.0533  0.9685 -0.2433
 
              Baa    -0.0012    -0.659    -0.235    -0.220  0.6612  0.1560  0.7338
    43 H(1)   Bbb    -0.0011    -0.571    -0.204    -0.190  0.7117  0.1789 -0.6793
              Bcc     0.0023     1.229     0.439     0.410 -0.2373  0.9714  0.0073
 
              Baa    -0.0011    -0.611    -0.218    -0.204  0.9247  0.3131  0.2165
    44 H(1)   Bbb    -0.0011    -0.585    -0.209    -0.195 -0.2756  0.1582  0.9482
              Bcc     0.0022     1.196     0.427     0.399 -0.2627  0.9364 -0.2326
 
              Baa    -0.0011    -0.609    -0.217    -0.203  0.2622  0.5936  0.7609
    45 H(1)   Bbb    -0.0010    -0.548    -0.196    -0.183  0.8382  0.2507 -0.4844
              Bcc     0.0022     1.157     0.413     0.386 -0.4782  0.7647 -0.4318
 
              Baa    -0.0013    -0.703    -0.251    -0.235 -0.0931  0.9411 -0.3251
    46 H(1)   Bbb    -0.0012    -0.622    -0.222    -0.207  0.8386 -0.1019 -0.5352
              Bcc     0.0025     1.325     0.473     0.442  0.5368  0.3224  0.7797
 
              Baa    -0.0013    -0.681    -0.243    -0.227  0.7349  0.6632  0.1420
    47 H(1)   Bbb    -0.0012    -0.663    -0.237    -0.221 -0.2484  0.0685  0.9662
              Bcc     0.0025     1.344     0.480     0.448 -0.6311  0.7453 -0.2151
 
              Baa    -0.0010    -0.543    -0.194    -0.181  0.7323 -0.6300  0.2584
    48 H(1)   Bbb    -0.0009    -0.456    -0.163    -0.152 -0.5280 -0.2857  0.7998
              Bcc     0.0019     0.999     0.356     0.333  0.4300  0.7221  0.5419
 
              Baa    -0.0019    -0.991    -0.353    -0.330  0.8194 -0.5200  0.2413
    49 H(1)   Bbb    -0.0016    -0.861    -0.307    -0.287 -0.4819 -0.3968  0.7812
              Bcc     0.0035     1.851     0.661     0.618  0.3105  0.7564  0.5758
 
              Baa    -0.0012    -0.662    -0.236    -0.221  0.6860 -0.5558  0.4695
    50 H(1)   Bbb    -0.0011    -0.567    -0.202    -0.189 -0.5636  0.0022  0.8261
              Bcc     0.0023     1.229     0.438     0.410  0.4602  0.8313  0.3117
 
              Baa    -0.0013    -0.716    -0.255    -0.239 -0.5624  0.4967  0.6611
    51 H(1)   Bbb    -0.0013    -0.671    -0.240    -0.224 -0.1419  0.7297 -0.6689
              Bcc     0.0026     1.387     0.495     0.463  0.8146  0.4699  0.3399
 
              Baa    -0.0011    -0.583    -0.208    -0.194 -0.1038  0.8603 -0.4991
    52 H(1)   Bbb    -0.0010    -0.545    -0.194    -0.182  0.7105 -0.2870 -0.6425
              Bcc     0.0021     1.128     0.402     0.376  0.6960  0.4213  0.5815
 
              Baa    -0.0011    -0.599    -0.214    -0.200 -0.3580  0.9335 -0.0195
    53 H(1)   Bbb    -0.0009    -0.487    -0.174    -0.163 -0.5637 -0.1994  0.8016
              Bcc     0.0020     1.087     0.388     0.363  0.7444  0.2980  0.5976
 
              Baa    -0.0012    -0.646    -0.230    -0.215  0.6520  0.7508  0.1054
    54 H(1)   Bbb    -0.0011    -0.565    -0.202    -0.189 -0.2230  0.0570  0.9732
              Bcc     0.0023     1.211     0.432     0.404  0.7246 -0.6581  0.2046
 
              Baa    -0.0012    -0.625    -0.223    -0.209  0.7102 -0.6893  0.1434
    55 H(1)   Bbb    -0.0011    -0.602    -0.215    -0.201 -0.3664 -0.1880  0.9113
              Bcc     0.0023     1.228     0.438     0.409  0.6012  0.6997  0.3861
 
              Baa    -0.0011    -0.606    -0.216    -0.202  0.3250  0.7065  0.6286
    56 H(1)   Bbb    -0.0009    -0.504    -0.180    -0.168  0.7285  0.2368 -0.6428
              Bcc     0.0021     1.111     0.396     0.370 -0.6030  0.6669 -0.4378
 
              Baa    -0.0010    -0.549    -0.196    -0.183  0.5668  0.2601  0.7817
    57 H(1)   Bbb    -0.0009    -0.455    -0.162    -0.152  0.7346  0.2699 -0.6225
              Bcc     0.0019     1.004     0.358     0.335 -0.3729  0.9271 -0.0381
 
              Baa    -0.0053    -2.828    -1.009    -0.943 -0.0348  0.9746  0.2211
    58 H(1)   Bbb    -0.0043    -2.296    -0.819    -0.766  0.9654  0.0900 -0.2447
              Bcc     0.0096     5.124     1.829     1.709  0.2584 -0.2049  0.9441
 
              Baa    -0.0015    -0.784    -0.280    -0.262  0.0826  0.9780  0.1916
    59 H(1)   Bbb    -0.0010    -0.532    -0.190    -0.178  0.9771 -0.1173  0.1774
              Bcc     0.0025     1.317     0.470     0.439 -0.1959 -0.1726  0.9653
 
              Baa    -0.0039    -2.084    -0.744    -0.695  0.0623  0.9649  0.2551
    60 H(1)   Bbb    -0.0031    -1.649    -0.588    -0.550 -0.0379 -0.2531  0.9667
              Bcc     0.0070     3.733     1.332     1.245  0.9973 -0.0699  0.0208
 
              Baa    -0.0008    -0.429    -0.153    -0.143  0.0708  0.9719  0.2243
    61 H(1)   Bbb    -0.0007    -0.389    -0.139    -0.130  0.1618 -0.2331  0.9589
              Bcc     0.0015     0.818     0.292     0.273  0.9843 -0.0316 -0.1737
 
              Baa    -0.0005    -0.259    -0.093    -0.086  0.1284  0.9444  0.3027
    62 H(1)   Bbb    -0.0005    -0.253    -0.090    -0.085  0.4437 -0.3277  0.8341
              Bcc     0.0010     0.513     0.183     0.171  0.8869  0.0272 -0.4611
 
              Baa    -0.0007    -0.366    -0.130    -0.122  0.0830  0.9760  0.2014
    63 H(1)   Bbb    -0.0005    -0.292    -0.104    -0.097  0.7727 -0.1907  0.6054
[...]
 0000853,-0.00001674,0.00001179,-0.00000441,0.00002300,-0.00000577,-0.0
 0000464,-0.00001030,0.00000558,-0.00000421,-0.00000330,-0.00000185,0.0
 0000381,-0.00000143,0.00000203,0.00000089,-0.00000798,0.00002119,0.000
 02005,-0.00000515,-0.00002460,-0.00001626,0.00000188,0.00006400,0.0000
 5700,-0.00004159,0.00001068,0.00002322,0.00000567,-0.00000125,-0.00000
 930,-0.00002339,-0.00000516,-0.00001075,0.00004481,0.00003448,0.000034
 63,-0.00001075,-0.00003080,-0.00001935,0.00001643,0.00009705,0.0000094
 3,0.00002764,-0.00000227,-0.00000641,0.00001130,0.00000517,-0.00001848
 ,0.00000607,-0.00009309,-0.00003919,-0.00026710,-0.00021910,-0.0000180
 8,0.00023093,0.00687738,0.00113909,0.00008925,0.00139782,0.00022349,-0
 .00003819,-0.00063784,-0.00012539,0.00000735,-0.00021662,-0.00005703,-
 0.00069960,0.00184316,-0.00032974,0.03974860,-0.04227132,0.03177727,0.
 00454805,0.00073169,0.00245149,-0.00011221,0.00502961,0.00182933,0.000
 00344,-0.00000271,0.00000098,-0.00000530,-0.00000536,-0.00001393,0.000
 00520,-0.00000597,-0.00000166,-0.00000276,0.00000895,0.00001147,0.0000
 0021,-0.00000062,0.00000033,0.00001031,0.00000131,0.00000001,-0.000006
 19,-0.00000986,0.00000041,0.00000184,-0.00000128,0.00000369,0.00000829
 ,-0.00000435,-0.00000481,-0.00001735,-0.00000745,0.00000158,0.00000884
 ,-0.00002805,-0.00000504,-0.00001215,-0.00000531,0.00000262,0.00000069
 ,0.00000017,-0.00000298,-0.00000101,-0.00000157,-0.00000091,0.00000096
 ,-0.00000154,-0.00000109,0.00000008,-0.00000098,0.00000059,-0.00000850
 ,0.00000900,-0.00002838,-0.00000052,-0.00000157,-0.00000049,-0.0000025
 5,-0.00003025,-0.00000450,-0.00000117,-0.00000032,-0.00000025,0.000002
 21,-0.00000156,-0.00000052,-0.00002732,-0.00031801,-0.00006400,-0.0000
 0924,0.00001382,0.00000056,-0.00032881,-0.00414715,-0.00096276,-0.0430
 7456,0.03468044,-0.00001042,-0.00000698,0.00000865,0.00000434,0.000001
 74,-0.00000242,0.00000768,0.00000322,-0.00000547,-0.00000174,0.0000047
 4,0.00000662,-0.00001675,-0.00000832,-0.00000890,0.00001945,0.00000185
 ,0.00001373,-0.00000072,0.00000099,-0.00000130,0.00000156,0.00000103,-
 0.00000222,0.00002004,0.00001465,0.00001450,-0.00000545,-0.00001559,-0
 .00000026,-0.00000733,0.00001153,-0.00000454,0.00001316,-0.00000203,0.
 00000676,-0.00000019,0.00000640,-0.00000459,-0.00000128,0.00000202,0.0
 0000012,-0.00000098,0.00000075,-0.00000138,0.00000229,0.00001859,0.000
 00471,-0.00001369,-0.00002429,-0.00000753,0.00002710,0.00005425,0.0000
 3636,-0.00001095,0.00000541,-0.00000098,0.00000131,0.00000448,0.000002
 77,-0.00002657,0.00000493,-0.00001787,0.00001218,-0.00003604,0.0000013
 9,-0.00001776,0.00003169,-0.00000888,0.00001860,-0.00005641,0.00002920
 ,0.00002148,-0.00000978,-0.00000217,-0.00000255,-0.00000731,0.00000305
 ,-0.00007834,-0.00000165,0.00004712,0.00134083,-0.00006533,-0.00044562
 ,0.00294117,0.00124647,-0.00075478,0.00046485,0.00008141,0.00082129,0.
 00023377,-0.00011092,-0.00016987,-0.00022793,-0.00005845,0.00017999,0.
 01246679,-0.00271914,0.01097017,-0.12703518,0.03174035,-0.14872799,-0.
 02639898,0.00490481,-0.01351937,0.00245631,0.00175632,-0.00497541,0.00
 000077,-0.00000190,0.00000160,-0.00000350,-0.00000186,-0.00000578,-0.0
 0000033,0.00000153,-0.00000054,0.00000878,0.00000933,-0.00002281,-0.00
 000013,-0.00000013,-0.00000143,-0.00000037,-0.00000129,-0.00000057,-0.
 00000400,-0.00000669,-0.00000257,-0.00000081,-0.00000164,-0.00000161,0
 .00000279,-0.00000053,-0.00000072,-0.00001028,0.00000317,0.00000182,0.
 00000214,0.00000580,0.00000568,-0.00000500,0.00000368,0.00000118,0.000
 00003,0.00000201,-0.00000038,-0.00000166,-0.00000270,0.00000067,-0.000
 00101,-0.00000237,0.00000061,0.00000069,-0.00000040,-0.00000119,-0.000
 00657,-0.00000863,-0.00002202,-0.00000147,0.00000026,0.00000085,0.0000
 0052,-0.00000859,-0.00000042,0.00000075,0.00000005,-0.00000119,-0.0000
 0174,0.00000053,0.00000090,0.00001239,-0.00008116,0.00009435,0.0000638
 1,-0.00000272,0.00000336,-0.00053631,-0.00091005,0.00070642,0.13550891
 ,-0.03530957,0.15569530,-0.00001904,-0.00001101,0.00002368,0.00000565,
 0.00000276,-0.00000408,0.00000614,0.00000424,-0.00000630,0.00006603,-0
 .00000086,-0.00010375,-0.00001275,0.00001268,0.00000924,0.00001358,-0.
 00001958,0.00000650,-0.00000119,-0.00000071,-0.00000203,0.00000333,0.0
 0000265,-0.00000323,-0.00000059,-0.00002520,-0.00000458,-0.00000718,-0
 .00000501,0.00002495,0.00000920,0.00001545,-0.00000030,-0.00000636,-0.
 00000138,0.00001748,0.00000032,0.00001918,-0.00000607,-0.00000173,0.00
 000184,-0.00000043,-0.00000003,0.00000301,-0.00000159,0.00001369,0.000
 02002,-0.00000511,-0.00002053,-0.00000281,0.00001018,0.00000238,0.0000
 2539,-0.00000349,0.00000253,0.00000226,-0.00000110,-0.00000017,0.00000
 722,0.00000420,-0.00000087,-0.00000329,0.00000453,-0.00000745,-0.00002
 464,-0.00001156,0.00000045,0.00000673,0.00002703,-0.00001740,-0.000011
 98,-0.00002164,0.00000150,-0.00000173,0.00000077,0.00000315,0.00000110
 ,-0.00000215,-0.00002375,-0.00000120,0.00001181,-0.00158076,0.00135959
 ,-0.00383612,0.00032613,0.00002160,-0.00047646,0.00013484,-0.00008977,
 0.00031115,-0.00024629,0.00013331,-0.00075685,-0.00099906,-0.00003129,
 0.00118458,0.00140821,0.00027239,0.00030288,0.00031784,0.00031305,-0.0
 0101474,-0.29740690,0.00233512,0.09700544,-0.01807225,-0.00044163,0.01
 074671,-0.00000188,-0.00000447,0.00000227,-0.00000172,0.00001036,0.000
 00546,-0.00000047,0.00000390,0.00000107,0.00000265,-0.00000026,0.00000
 007,-0.00000019,0.00000032,-0.00000270,-0.00000125,-0.00000229,0.00000
 199,-0.00000089,-0.00000625,-0.00000215,-0.00000094,-0.00000237,-0.000
 00380,-0.00000048,-0.00000345,0.00000317,-0.00000087,0.00000329,0.0000
 0348,0.00000056,0.00000178,-0.00000237,-0.00000092,0.00000231,0.000004
 63,0.00000054,0.00000490,0.00000091,-0.00000284,-0.00000519,0.00000178
 ,-0.00000226,-0.00000519,0.00000108,0.00000138,-0.00000052,-0.00000292
 ,0.00000215,-0.00000059,-0.00000286,-0.00000219,0.00000296,0.00000213,
 0.00000234,-0.00000440,-0.00000041,0.00000294,-0.00000038,-0.00000219,
 -0.00000344,0.00000235,0.00000243,-0.00002761,-0.00005278,0.00009775,-
 0.00001327,0.00000101,0.00006538,-0.00004446,0.00004939,-0.00011932,0.
 00078858,-0.00036242,0.00022396,0.31444513,-0.00000237,-0.00000387,0.0
 0000051,0.00000114,0.00000110,-0.00000028,0.00000189,0.00000335,-0.000
 00045,0.00000259,0.00000302,0.00001060,0.00000177,-0.00001403,-0.00001
 311,0.00000939,0.00001058,0.00000026,0.00000111,0.00000122,0.00000070,
 0.00000099,0.00000031,-0.00000221,0.00001677,0.00002208,0.00001293,-0.
 00000288,-0.00002006,-0.00000822,-0.00000570,0.00000783,0.00000244,0.0
 0000393,-0.00000678,0.00000069,-0.00000398,0.00000661,-0.00000211,-0.0
 0000463,0.00000028,0.00000532,-0.00000118,0.00000181,0.00000010,-0.000
 00482,0.00001219,0.00001485,-0.00001017,-0.00001285,-0.00001438,0.0000
 2511,0.00003371,0.00001648,-0.00000816,0.00000077,0.00000297,0.0000013
 1,0.00000278,0.00000124,-0.00001761,0.00000215,-0.00000553,0.00001826,
 -0.00001179,0.00000671,0.00000087,-0.00000324,0.00000914,-0.00001502,0
 .00001526,0.00000397,0.00000008,-0.00000206,-0.00000639,0.00000269,0.0
 0000133,-0.00000597,-0.00001287,-0.00001814,0.00000408,0.00120711,0.00
 618614,0.00199292,0.00014534,-0.00059417,0.00010926,-0.00007982,-0.000
 18553,-0.00012058,0.00003532,-0.00036012,0.00009477,0.00038469,0.00142
 903,-0.00004860,0.00044126,0.00523659,0.00206945,-0.00547056,0.0019869
 3,0.00174207,0.00223610,-0.03473428,0.00421143,0.00527530,0.00218928,-
 0.00239031,0.00000188,-0.00000313,-0.00000041,-0.00000269,-0.00000210,
 -0.00000809,0.00000226,-0.00000275,-0.00000309,-0.00000045,0.00000135,
 0.00000087,-0.00000018,0.00000049,0.00000011,0.00000221,-0.00000040,-0
 .00000192,-0.00000313,-0.00000670,-0.00000023,0.00000113,-0.00000135,0
 .00000268,0.00000125,-0.00000130,-0.00000096,-0.00000180,-0.00000170,0
 .00000090,0.00000415,-0.00000250,0.00000162,-0.00000238,-0.00000102,-0
 .00000028,0.00000156,0.00000099,-0.00000271,-0.00000077,-0.00000183,-0
 .00000062,0.00000064,-0.00000209,-0.00000107,-0.00000085,-0.00000075,-
 0.00000052,-0.00000063,0.00000149,-0.00000478,-0.00000082,-0.00000144,
 0.00000004,-0.00000517,-0.00000538,-0.00000342,-0.00000055,0.00000001,
 0.00000033,0.00000090,-0.00000103,-0.00000038,-0.00002567,-0.00043227,
 -0.00011192,0.00001034,0.00014474,0.00001510,-0.00027063,0.00028434,0.
 00013438,-0.00024629,-0.00314406,-0.00081155,-0.00314057,0.02602050,0.
 00001298,0.00000355,-0.00000697,-0.00000365,-0.00000136,0.00000178,-0.
 00000922,-0.00000114,0.00000646,-0.00003364,-0.00000034,-0.00000310,0.
 00002110,0.00001240,0.00001558,-0.00003076,-0.00001023,-0.00001773,0.0
 0000262,-0.00000200,-0.00000003,-0.00000047,-0.00000187,0.00000050,-0.
 00003028,-0.00002524,-0.00002670,0.00000258,0.00001640,0.00001498,0.00
 000953,-0.00000290,0.00000776,-0.00001953,-0.00000049,-0.00000970,-0.0
 0000333,0.00000297,-0.00000084,0.00000331,-0.00000391,-0.00000238,0.00
 000205,0.00000111,0.00000115,-0.00000994,-0.00002308,-0.00000549,-0.00
 001020,0.00003806,-0.00003069,-0.00000222,-0.00006326,0.00001067,0.000
 00185,-0.00001076,0.00000450,-0.00000255,0.00000003,0.00000039,0.00003
 584,-0.00001563,0.00002802,-0.00001517,0.00009522,0.00000073,0.0000097
 2,-0.00005229,-0.00002821,-0.00000264,0.00009494,0.00000796,0.00000687
 ,0.00000714,0.00000764,-0.00000162,-0.00000100,-0.00000323,0.00007759,
 -0.00003742,-0.00004003,-0.00305700,0.00192766,-0.00235849,-0.00110408
 ,0.00015885,-0.00094077,0.00028555,-0.00011841,0.00029644,-0.00023709,
 0.00005199,-0.00052229,-0.00103619,0.00013093,0.00118389,-0.00061460,0
 .00214570,-0.00545991,0.02977407,-0.00065983,-0.00697519,0.09756143,0.
 00416508,-0.09639596,-0.01967050,-0.00001508,0.01041217,0.00000203,-0.
 00000016,0.00000013,-0.00000444,-0.00000021,-0.00000277,0.00000216,-0.
 00000375,0.00000066,-0.00000037,0.00000025,0.00000092,0.00000187,0.000
 00015,0.00000074,0.00000214,0.00000095,-0.00000068,0.00000132,0.000003
 50,0.00000232,0.00000244,-0.00000202,0.00000252,0.00000362,0.00000239,
 -0.00000341,-0.00000033,-0.00000608,-0.00000237,0.00000331,-0.00001066
 ,0.00000516,0.00000264,-0.00000373,-0.00000317,-0.00000099,0.00000061,
 0.00000060,0.00000053,0.00000165,0.00000063,0.00000099,0.00000182,-0.0
 0000001,0.00000179,0.00000097,0.00000154,-0.00000019,0.00000260,0.0000
 0714,0.00000121,-0.00000069,0.00000021,0.00000180,0.00000454,0.0000030
 4,0.00000207,-0.00000149,0.00000145,0.00000219,-0.00000112,0.00000088,
 -0.00003746,-0.00010431,0.00010615,0.00001173,0.00001973,0.00003946,0.
 00158714,-0.00000192,-0.00038548,-0.00040583,-0.00076272,0.00089938,-0
 .10356580,-0.00595384,0.09930426,-0.00001400,-0.00001054,0.00002989,0.
 00000144,0.,0.00000128,-0.00000338,0.00000175,0.00000189,0.00007577,0.
 00002304,-0.00027701,-0.00002341,0.00001514,0.00003843,0.00002372,0.00
 000309,0.00001253,-0.00000194,0.00000029,0.00000306,0.00000313,0.00000
 243,-0.00000109,-0.00001934,-0.00003020,-0.00001043,0.00000569,-0.0000
 0335,-0.00000908,0.00001122,-0.00001515,0.00000083,-0.00001678,0.00000
 277,0.00004915,-0.00000733,0.00001868,-0.00000595,-0.00000770,-0.00000
 122,0.00000638,-0.00000133,0.00000347,0.00000017,0.00000486,0.00000943
 ,0.00001292,-0.00002238,0.00003652,-0.00001476,-0.00000518,-0.00001405
 ,0.00000874,-0.00000131,0.00000128,0.00000565,0.00000130,0.00000054,-0
 .00000053,0.00001745,-0.00000637,0.00000879,-0.00001410,0.00001619,0.0
 0000057,0.00000767,-0.00002477,0.00000318,-0.00001950,0.00003449,-0.00
 001962,-0.00000387,0.00000172,0.00000435,-0.00000066,0.00000261,0.0000
 0026,0.00001711,-0.00002013,-0.00001513,0.00026352,-0.00540736,0.02974
 084,-0.00400359,0.00084779,-0.00052735,-0.00148056,-0.00019420,0.00171
 528,-0.00000254,-0.00025292,0.00118583,0.00307907,-0.00021993,-0.00117
 247,-0.00126066,0.00008926,-0.00008033,-0.00402287,0.00129279,-0.00221
 803,0.00900073,0.00416419,-0.02510246,-0.06383426,-0.00468200,0.038354
 78,0.00000034,-0.00000263,-0.00000131,0.00000020,0.00000436,0.,-0.0000
 0019,0.00000252,0.00000265,-0.00000109,-0.00000247,0.00000768,-0.00000
 562,0.00000024,0.00000127,0.00000205,-0.00000012,0.00000046,-0.0000001
 1,-0.00000411,0.00000067,-0.00000220,0.00000654,-0.00000249,0.00000113
 ,-0.00000389,-0.00000062,0.00000303,0.00000098,0.00000095,0.00000327,-
 0.00001152,-0.00000172,0.00000422,0.00000017,0.00000173,0.00000325,-0.
 00000104,-0.00000190,0.00000003,-0.00000272,-0.00000224,-0.00000060,-0
 .00000475,-0.00000195,-0.00000464,-0.00000469,-0.00000352,0.00000470,0
 .00000258,0.00000822,-0.00000068,0.00000281,-0.00000106,0.00000413,0.0
 0000547,0.00000298,-0.00000423,0.00000356,-0.00000237,-0.00000176,0.00
 000182,-0.00000162,-0.00002092,0.00002321,-0.00006027,-0.00077022,0.00
 008015,-0.00015971,0.00022387,-0.00014031,0.00004618,0.00029547,0.0002
 8594,-0.00144848,0.00096872,-0.00049702,0.00047201,0.06155186,-0.00000
 377,-0.00001222,0.00000445,0.00000339,0.00000252,-0.00000388,0.0000018
 8,0.00000247,-0.00000201,0.00001301,0.00009505,0.00001409,-0.00000831,
 -0.00001195,-0.00000078,0.00001448,0.00001557,0.00001080,0.00000346,-0
 .00000071,-0.00000080,0.00000633,0.00000159,-0.00000664,0.00000235,0.0
 0001184,-0.00000503,-0.00000446,-0.00002354,-0.00000327,-0.00000772,0.
 00002207,-0.00000093,0.00001137,-0.00001842,-0.00000986,-0.00000167,0.
 00001302,0.00000289,-0.00001213,0.00000249,0.00001417,-0.00000121,0.00
 000187,0.00000068,-0.00000345,0.00001778,0.00003145,0.00000034,-0.0000
 2323,-0.00001474,-0.00000527,0.00001071,0.00001892,-0.00000368,0.00000
 553,0.00000406,0.00000289,0.00000371,0.00000256,-0.00000529,-0.0000080
 7,0.00001213,-0.00000165,0.00002252,-0.00000696,-0.00000025,-0.0000242
 3,-0.00000317,0.00000217,0.00000991,-0.00000944,0.00000235,0.00000051,
 -0.00000213,0.00000542,0.00000063,-0.00000470,-0.00000843,-0.00002439,
 -0.00000227,0.00035373,0.00238753,-0.00040258,0.00053238,0.00556926,0.
 00076126,0.00005508,0.00021069,-0.00004078,-0.00014142,-0.00037354,-0.
 00004677,-0.00035403,-0.00253354,-0.00061260,0.00005354,-0.00028856,-0
 .00013320,0.00155210,0.00685284,0.00141210,-0.00147514,0.00120824,0.00
 489492,-0.00451147,-0.04077387,0.05134674,0.00000094,-0.00000740,-0.00
 000199,0.00000282,0.00000041,-0.00000607,0.00000266,-0.00000324,-0.000
 00496,0.00000057,0.00000101,-0.00000138,0.00000009,0.00000108,-0.00000
 033,0.00000001,-0.00000060,-0.00000281,-0.00000083,-0.00000744,0.00000
 020,0.00000210,-0.00000635,0.00000284,-0.00000017,-0.00000238,-0.00000
 083,-0.00000147,-0.00000166,0.00000108,0.00000323,0.00000507,-0.000001
 95,-0.00000127,-0.00000056,-0.00000110,0.00000424,0.00000004,-0.000004
 65,0.00000003,-0.00000349,-0.00000169,0.00000111,-0.00000401,-0.000001
 84,-0.00000350,-0.00000021,-0.00000117,-0.00000053,0.00000067,-0.00000
 112,-0.00000174,-0.00000200,0.00000103,-0.00000472,0.00000044,-0.00000
 016,0.00000327,-0.00000028,0.00000016,0.00000013,-0.00000190,0.0000018
 4,0.00000921,0.00013150,0.00002614,-0.00009699,-0.00008465,0.00004568,
 -0.00013192,-0.00139746,-0.00025597,-0.00004483,0.00037777,0.00035006,
 -0.00037898,-0.00402955,-0.00099228,0.00456963,0.03268309,0.00002083,0
 .00000919,-0.00002606,-0.00000614,-0.00000204,0.00000213,-0.00000645,-
 0.00000304,0.00000532,-0.00007283,0.00000963,0.00017532,0.00003851,-0.
 00002184,-0.00001738,-0.00003390,0.00001757,-0.00001681,0.00000346,0.0
 0000009,-0.00000019,-0.00000042,-0.00000211,0.00000019,-0.00000722,0.0
 0002923,-0.00000510,0.00000470,0.00000545,-0.00001158,-0.00001632,-0.0
 0000637,-0.00000179,0.00001939,0.00000189,-0.00003478,-0.00000199,-0.0
 0002063,0.00000594,0.00000562,-0.00000224,-0.00000348,0.00000041,-0.00
 000303,0.00000107,-0.00001415,-0.00001728,0.00000216,0.00002050,-0.000
 00273,-0.00000971,-0.00000403,-0.00001477,0.00000642,-0.00000893,-0.00
 000140,0.00000519,-0.00000001,-0.00000602,-0.00000440,0.00001196,-0.00
 000346,0.00001247,-0.00000507,0.00004564,-0.00000084,0.00000870,-0.000
 02289,-0.00001601,0.00000519,0.00001901,0.00000958,-0.00000646,0.00000
 305,0.00000006,-0.00000128,-0.00000082,0.00000171,0.00002483,-0.000008
 10,-0.00001298,-0.00092566,0.00201168,-0.00799116,0.00121956,0.0006199
 2,0.00199007,0.00038382,0.00006284,-0.00027774,0.00058203,-0.00000038,
 -0.00062490,-0.00042422,-0.00067525,0.00110275,0.00002545,-0.00013980,
 0.00041679,-0.00356929,0.00152761,0.00057060,0.00506621,0.00252973,-0.
 01356512,0.03725972,0.05142424,-0.32127137,0.00000217,0.00000392,-0.00
 000075,-0.00000096,-0.00001025,-0.00000653,0.00000100,-0.00000555,-0.0
 0000442,-0.00000390,-0.00000082,0.00000497,0.00000388,-0.00000009,0.00
 000150,0.00000302,0.00000201,-0.00000171,-0.00000063,0.00000469,0.0000
 0167,0.00000330,-0.00000407,0.00000547,0.00000156,0.00000214,-0.000002
 76,0.00000273,-0.00000330,-0.00000298,0.00000141,-0.00000417,0.0000001
 3,0.00000179,-0.00000269,-0.00000546,-0.00000224,-0.00000309,-0.000000
 42,0.00000177,0.00000501,-0.00000034,0.00000220,0.00000611,0.00000001,
 0.00000181,0.00000226,0.00000434,-0.00000010,0.00000100,0.00000662,0.0
 0000173,-0.00000468,-0.00000063,-0.00000455,0.00000697,-0.00000015,0.0
 0000180,-0.00000173,0.00000365,0.00000356,-0.00000358,0.00000002,0.000
 00964,0.00002064,0.00002152,0.00079870,-0.00002850,-0.00026615,-0.0000
 0482,-0.00024945,-0.00012462,0.00030738,0.00021709,-0.00083578,-0.0001
 4260,-0.00094502,0.00084782,-0.04058612,-0.05636744,0.33993861\\-0.000
 00572,0.00000286,0.00000183,-0.00000170,-0.00000488,0.00000385,0.00000
 142,0.00000021,-0.00000205,-0.00000570,0.00000024,0.00001417,0.0000050
 8,0.00000200,-0.00000318,0.00000001,-0.00000344,0.00000097,-0.00000412
 ,0.00000037,0.00000115,0.00000226,0.00000216,-0.00000157,-0.00000122,-
 0.00000130,0.00000147,-0.00000122,0.00000221,-0.00000059,-0.00000108,-
 0.00000087,0.00000662,0.00000581,0.00000434,-0.00001175,0.00000076,-0.
 00000424,0.00000138,0.00000027,-0.00000103,-0.00000012,-0.00000186,0.0
 0000028,-0.00000200,-0.00000112,-0.00000252,-0.00000285,0.00000296,0.0
 0000239,-0.00000041,-0.00000241,0.00000112,-0.00000141,0.00000208,-0.0
 0000174,0.00000150,-0.00000064,-0.00000041,-0.00000047,-0.00000017,0.0
 0000166,-0.00000120,0.00000026,-0.00000256,-0.00000007,-0.00000443,0.0
 0000132,-0.00000041,0.00000209,-0.00000318,-0.00000313,-0.00000137,-0.
 00000077,0.00000549,0.00000324,0.00000144,-0.00000334,0.00000018,0.000
 00109,0.00000161,0.00000002,-0.00000140,0.00000207,0.00000130,0.000000
 66,-0.00000261,0.00000682,0.00000020,-0.00000833,-0.00000052,-0.000000
 84,0.00000434,-0.00000203,0.00000244,-0.00000174,-0.00000073,0.0000004
 2,0.00000144,0.00000115,-0.00000019,0.00000107,-0.00000078,0.00000071,
 -0.00000081,0.00000099,0.00000075,-0.00000082,0.00000031,0.00000001,-0
 .00000081,-0.00000013,0.00000032,0.00000046,0.00000006,0.00000002,0.00
 000052,-0.00000034,-0.00000034,0.00000015,0.00000015,-0.00000015,0.000
 00007,0.00000024,0.00000036,-0.00000050,0.00000045,-0.00000029,-0.0000
 0082,-0.00000075,0.00000044,0.00000134,-0.00000044,-0.00000025,-0.0000
 0083,0.00000139,-0.00000070,-0.00000059,-0.00000050,0.00000054,-0.0000
 0096,-0.00000186,-0.00000073,0.00000115,0.00000020,0.00000080,-0.00000
 017,-0.00000003,-0.00000016,-0.00000038,0.00000068,-0.00000005,0.00000
 038,0.00000064,-0.00000001,-0.00000002,-0.00000021,-0.00000040,-0.0000
 0175,0.00000006,-0.00000004,-0.00000068,-0.00000106,0.00000050,0.00000
 147,0.00000148,-0.00000040,0.00000016,-0.00000058,-0.00000152,0.000001
 45,-0.00000048,-0.00000013,-0.00000060,0.00000020,0.00000084,-0.000000
 13,-0.00000035,0.00000019,0.00000039,0.00000035,0.00000030,0.00000010,
 0.00000065,0.00000065,0.00000027,-0.00000004,0.00000067,0.00000019\\\@


 THOSE WHO ASPIRE NOT TO GUESS AND DIVINE,
 BUT TO DISCOVER AND KNOW, WHO PROPOSE NOT TO DEVISE 
 MIMIC AND FABULOUS WORLDS OF THEIR OWN, BUT TO 
 EXAMINE AND DISSECT THE NATURE OF THIS VERY WORLD 
 ITSELF, MUST GO TO THE FACTS THEMSELVES FOR EVERYTHING.

                               -- FRANCIS BACON, 1620
 Job cpu time:       0 days  0 hours  2 minutes 15.9 seconds.
 File lengths (MBytes):  RWF=   4697 Int=      0 D2E=      0 Chk=     28 Scr=      1
 Normal termination of Gaussian 09 at Thu Oct 29 10:09:10 2015.
