 Entering GApplication 60304525 resources: utime ~84840s, stime ~817s, Rss ~1651688, inblocks ~36852778, outblocks ~8514310
pgdp.sp.com
 Output=/global/homes/p/parksjm/tpss/H2O.Co.2.Corrin.Bzm/H2O.Co.2.Corrin.Bzm.tpss.6311ppgdp.sp.log
 Initial command:
 /usr/common/usg/g09/d1/g09/l1.exe "/scratch/scratchdirs/parksjm/g09/13504655.hopque01/Gau-17154.inp" -scrdir="/scratch/scratchdirs/parksjm/g09/13504655.hopque01/"
 Entering Link 1 = /usr/common/usg/g09/d1/g09/l1.exe PID=     17155.
  
 Copyright (c) 1988,1990,1992,1993,1995,1998,2003,2009,2013,
            Gaussian, Inc.  All Rights Reserved.
  
 This is part of the Gaussian(R) 09 program.  It is based on
 the Gaussian(R) 03 system (copyright 2003, Gaussian, Inc.),
 the Gaussian(R) 98 system (copyright 1998, Gaussian, Inc.),
 the Gaussian(R) 94 system (copyright 1995, Gaussian, Inc.),
 the Gaussian 92(TM) system (copyright 1992, Gaussian, Inc.),
 the Gaussian 90(TM) system (copyright 1990, Gaussian, Inc.),
 the Gaussian 88(TM) system (copyright 1988, Gaussian, Inc.),
 the Gaussian 86(TM) system (copyright 1986, Carnegie Mellon
 University), and the Gaussian 82(TM) system (copyright 1983,
 Carnegie Mellon University). Gaussian is a federally registered
 trademark of Gaussian, Inc.
  
 This software contains proprietary and confidential information,
 including trade secrets, belonging to Gaussian, Inc.
  
 This software is provided under written license and may be
 used, copied, transmitted, or stored only in accord with that
 written license.
  
 The following legend is applicable only to US Government
 contracts under FAR:
  
                    RESTRICTED RIGHTS LEGEND
  
 Use, reproduction and disclosure by the US Government is
 subject to restrictions as set forth in subparagraphs (a)
 and (c) of the Commercial Computer Software - Restricted
 Rights clause in FAR 52.227-19.
  
 Gaussian, Inc.
 340 Quinnipiac St., Bldg. 40, Wallingford CT 06492
  
  
 ---------------------------------------------------------------
 Warning -- This program may not be used in any manner that
 competes with the business of Gaussian, Inc. or will provide
 assistance to any competitor of Gaussian, Inc.  The licensee
 of this program is prohibited from giving any competitor of
 Gaussian, Inc. access to this program.  By using this program,
 the user acknowledges that Gaussian, Inc. is engaged in the
 business of creating and licensing software in the field of
 computational chemistry and represents and warrants to the
 licensee that it is not a competitor of Gaussian, Inc. and that
 it will not use this program in any manner prohibited above.
 ---------------------------------------------------------------
  

 Cite this work as:
 Gaussian 09, Revision D.01,
 M. J. Frisch, G. W. Trucks, H. B. Schlegel, G. E. Scuseria, 
 M. A. Robb, J. R. Cheeseman, G. Scalmani, V. Barone, B. Mennucci, 
 G. A. Petersson, H. Nakatsuji, M. Caricato, X. Li, H. P. Hratchian, 
 A. F. Izmaylov, J. Bloino, G. Zheng, J. L. Sonnenberg, M. Hada, 
 M. Ehara, K. Toyota, R. Fukuda, J. Hasegawa, M. Ishida, T. Nakajima, 
 Y. Honda, O. Kitao, H. Nakai, T. Vreven, J. A. Montgomery, Jr., 
 J. E. Peralta, F. Ogliaro, M. Bearpark, J. J. Heyd, E. Brothers, 
 K. N. Kudin, V. N. Staroverov, T. Keith, R. Kobayashi, J. Normand, 
 K. Raghavachari, A. Rendell, J. C. Burant, S. S. Iyengar, J. Tomasi, 
 M. Cossi, N. Rega, J. M. Millam, M. Klene, J. E. Knox, J. B. Cross, 
 V. Bakken, C. Adamo, J. Jaramillo, R. Gomperts, R. E. Stratmann, 
 O. Yazyev, A. J. Austin, R. Cammi, C. Pomelli, J. W. Ochterski, 
 R. L. Martin, K. Morokuma, V. G. Zakrzewski, G. A. Voth, 
 P. Salvador, J. J. Dannenberg, S. Dapprich, A. D. Daniels, 
 O. Farkas, J. B. Foresman, J. V. Ortiz, J. Cioslowski, 
 and D. J. Fox, Gaussian, Inc., Wallingford CT, 2013.
 
 ******************************************
 Gaussian 09:  AS64L-G09RevD.01 24-Apr-2013
                29-Oct-2015 
 ******************************************
 %nproc=24
 Will use up to   24 processors via shared memory.
 %chk=H2O.Co.2.Corrin.Bzm.chk
 %mem=7000mb
 -----------------------------------------------------
 # tpsstpss/6-311++G(d,p) integral=ultrafine scf=tight
 -----------------------------------------------------
 1/38=1/1;
 2/12=2,17=6,18=5,40=1/2;
 3/5=4,6=6,7=1111,11=2,16=1,25=1,30=1,74=2523,75=-5/1,2,3;
 4//1;
 5/5=2,32=2,38=5/2;
 6/7=2,8=2,9=2,10=2,28=1/1;
 99/5=1,9=1/99;
 -------------------
 H2O.Co.2.Corrin.Bzm
 -------------------
 Symbolic Z-matrix:
 Charge =  1 Multiplicity = 2
 O                     1.88154   0.51554  -2.57471 
 H                     2.47591  -0.21315  -2.84152 
 H                     1.22621   0.57306  -3.29775 
 Co                    0.57358   0.02505  -0.50825 
 N                     1.62334  -1.52567  -0.05648 
 C                     2.77841  -1.52501   0.72175 
 C                     3.32496  -2.93369   0.88607 
 C                     2.22029  -3.81932   0.27747 
 C                     1.28389  -2.81116  -0.36179 
 C                     3.37025  -0.40445   1.26476 
 C                     2.89908   0.91759   1.0246 
 N                     1.81953   1.14666   0.30306 
 C                     1.66723   2.60604   0.04898 
 C                     2.4419    3.2546    1.20947 
 C                     3.55813   2.21169   1.47618 
 C                     0.16475   2.82534  -0.12187 
 N                    -0.28503   1.63442  -0.89546 
 C                    -1.20138   1.96224  -1.78458 
 C                    -1.51875   3.44698  -1.753 
 C                    -0.3185    4.02627  -0.96186 
 C                     0.19791  -3.17706  -1.15656 
 C                    -0.67852  -2.29652  -1.78689 
 N                    -0.63558  -0.93935  -1.65308 
 C                    -1.54892  -0.36237  -2.5312 
 C                    -2.20841  -1.42234  -3.39773 
 C                    -1.79761  -2.73869  -2.7094 
 C                    -1.81675   0.98697  -2.6216 
 C                    -2.1682   -0.44146   3.00644 
 C                    -1.9581   -0.19921   1.62362 
 N                    -0.58543  -0.25142   1.34216 
 C                     0.00009  -0.51119   2.50321 
 N                    -0.89419  -0.63597   3.5305 
 C                    -3.05862   0.04504   0.78408 
 C                    -4.32979   0.03618   1.36126 
 C                    -4.51938  -0.20863   2.74131 
 C                    -3.44024  -0.45268   3.59306 
 H                     2.15753   2.81889  -0.91531 
 H                    -0.32662   2.79251   0.86387 
 H                     0.04311  -4.24075  -1.32632 
 H                    -2.54912   1.31966  -3.35372 
 H                     4.2688   -0.53589   1.86373 
 H                     0.4735    4.33456  -1.65851 
 H                    -0.58887   4.89173  -0.3477 
 H                     1.68201  -4.3943    1.04517 
 H                    -1.62745   3.87551  -2.75711 
 H                    -1.81141  -1.36892  -4.42246 
 H                    -2.47156   3.61     -1.22506 
 H                    -1.47681  -3.52007  -3.40829 
 H                     1.7913    3.34379   2.09109 
 H                     2.83189   4.2483    0.96402 
 H                     4.45132   2.41178   0.86314 
 H                     3.88524   2.17416   2.52291 
 H                    -3.29315  -1.2799   -3.46363 
 H                     4.27233  -3.03169   0.33718 
 H                    -2.62338  -3.15394  -2.11206 
 H                     3.53872  -3.16647   1.93633 
 H                     2.59946  -4.54248  -0.45536 
 H                     1.06873  -0.61646   2.64656 
 H                    -0.66239  -0.83264   4.49878 
 H                    -2.92151   0.23503  -0.27716 
 H                    -5.20069   0.22253   0.73522 
 H                    -5.52821  -0.2066    3.1493 
 H                    -3.58464  -0.64054   4.65519 
 
 Stoichiometry    C26H29CoN6O(1+,2)
 Framework group  C1[X(C26H29CoN6O)]
 Deg. of freedom   183
 Full point group                 C1      NOp   1
 Largest Abelian subgroup         C1      NOp   1
 Largest concise Abelian subgroup C1      NOp   1
                         Standard orientation:                         
 ---------------------------------------------------------------------
 Center     Atomic      Atomic             Coordinates (Angstroms)
 Number     Number       Type             X           Y           Z
 ---------------------------------------------------------------------
      1          8           0        1.881541    0.515538   -2.574708
      2          1           0        2.475907   -0.213145   -2.841515
      3          1           0        1.226214    0.573056   -3.297750
      4         27           0        0.573576    0.025050   -0.508247
      5          7           0        1.623338   -1.525671   -0.056476
      6          6           0        2.778406   -1.525011    0.721749
      7          6           0        3.324955   -2.933691    0.886074
      8          6           0        2.220287   -3.819324    0.277469
      9          6           0        1.283885   -2.811158   -0.361788
     10          6           0        3.370248   -0.404445    1.264763
     11          6           0        2.899080    0.917593    1.024596
     12          7           0        1.819534    1.146657    0.303063
     13          6           0        1.667232    2.606035    0.048984
     14          6           0        2.441901    3.254597    1.209468
     15          6           0        3.558134    2.211688    1.476176
     16          6           0        0.164749    2.825339   -0.121866
     17          7           0       -0.285033    1.634419   -0.895456
     18          6           0       -1.201376    1.962242   -1.784575
     19          6           0       -1.518745    3.446976   -1.753000
     20          6           0       -0.318498    4.026271   -0.961861
     21          6           0        0.197909   -3.177058   -1.156557
     22          6           0       -0.678518   -2.296520   -1.786886
     23          7           0       -0.635577   -0.939348   -1.653075
     24          6           0       -1.548918   -0.362369   -2.531199
     25          6           0       -2.208411   -1.422342   -3.397728
     26          6           0       -1.797605   -2.738685   -2.709403
     27          6           0       -1.816750    0.986974   -2.621603
     28          6           0       -2.168197   -0.441464    3.006441
     29          6           0       -1.958103   -0.199207    1.623622
     30          7           0       -0.585431   -0.251424    1.342157
     31          6           0        0.000090   -0.511189    2.503210
     32          7           0       -0.894192   -0.635967    3.530501
     33          6           0       -3.058623    0.045042    0.784078
     34          6           0       -4.329787    0.036180    1.361263
     35          6           0       -4.519379   -0.208631    2.741309
     36          6           0       -3.440236   -0.452680    3.593061
     37          1           0        2.157532    2.818893   -0.915313
     38          1           0       -0.326615    2.792509    0.863866
     39          1           0        0.043105   -4.240754   -1.326321
     40          1           0       -2.549124    1.319655   -3.353719
     41          1           0        4.268804   -0.535890    1.863731
     42          1           0        0.473496    4.334563   -1.658509
     43          1           0       -0.588866    4.891733   -0.347699
     44          1           0        1.682012   -4.394301    1.045166
     45          1           0       -1.627448    3.875514   -2.757108
     46          1           0       -1.811412   -1.368916   -4.422462
     47          1           0       -2.471562    3.610003   -1.225062
     48          1           0       -1.476811   -3.520069   -3.408285
     49          1           0        1.791300    3.343791    2.091094
     50          1           0        2.831888    4.248298    0.964024
     51          1           0        4.451319    2.411776    0.863138
     52          1           0        3.885243    2.174163    2.522914
     53          1           0       -3.293150   -1.279896   -3.463628
     54          1           0        4.272327   -3.031687    0.337175
     55          1           0       -2.623375   -3.153941   -2.112060
     56          1           0        3.538719   -3.166468    1.936330
     57          1           0        2.599458   -4.542481   -0.455362
     58          1           0        1.068735   -0.616459    2.646562
     59          1           0       -0.662390   -0.832641    4.498784
     60          1           0       -2.921508    0.235025   -0.277160
     61          1           0       -5.200686    0.222525    0.735222
     62          1           0       -5.528210   -0.206603    3.149304
     63          1           0       -3.584636   -0.640541    4.655191
 ---------------------------------------------------------------------
 Rotational constants (GHZ):      0.1451135      0.1288892      0.1234770
 Standard basis: 6-311++G(d,p) (5D, 7F)
 There are  1027 symmetry adapted cartesian basis functions of A   symmetry.
 There are   987 symmetry adapted basis functions of A   symmetry.
   987 basis functions,  1543 primitive gaussians,  1027 cartesian basis functions
   131 alpha electrons      130 beta electrons
       nuclear repulsion energy      4595.3396461213 Hartrees.
 NAtoms=   63 NActive=   63 NUniq=   63 SFac= 1.00D+00 NAtFMM=   60 NAOKFM=T Big=T
 Integral buffers will be    131072 words long.
 Raffenetti 2 integral format.
 Two-electron integral symmetry is turned on.
 One-electron integrals computed using PRISM.
 NBasis=   987 RedAO= T EigKep=  1.11D-06  NBF=   987
 NBsUse=   977 1.00D-06 EigRej=  9.03D-07 NBFU=   977
 ExpMin= 1.33D-02 ExpMax= 2.71D+05 ExpMxC= 9.06D+03 IAcc=3 IRadAn=         5 AccDes= 0.00D+00
 Harris functional with IExCor= 1009 and IRadAn=       5 diagonalized for initial guess.
 HarFok:  IExCor= 1009 AccDes= 0.00D+00 IRadAn=         5 IDoV= 1 UseB2=F ITyADJ=14
 ICtDFT=  3500011 ScaDFX=  1.000000  1.000000  1.000000  1.000000
 FoFCou: FMM=F IPFlag=           0 FMFlag=      100000 FMFlg1=        2001
         NFxFlg=           0 DoJE=T BraDBF=F KetDBF=T FulRan=T
         wScrn=  0.000000 ICntrl=     500 IOpCl=  0 I1Cent=   200000004 NGrid=           0
         NMat0=    1 NMatS0=      1 NMatT0=    0 NMatD0=    1 NMtDS0=    0 NMtDT0=    0
 Petite list used in FoFCou.
 Initial guess <Sx>= 0.0000 <Sy>= 0.0000 <Sz>= 0.5000 <S**2>= 0.7500 S= 0.5000
 Requested convergence on RMS density matrix=1.00D-08 within 128 cycles.
 Requested convergence on MAX density matrix=1.00D-06.
 Requested convergence on             energy=1.00D-06.
 No special actions if energy rises.
 EnCoef did   100 forward-backward iterations
 Restarting incremental Fock formation.
 SCF Done:  E(UTPSS-TPSS) =  -2795.35268230     A.U. after   25 cycles
            NFock= 25  Conv=0.61D-08     -V/T= 2.0025
 <Sx>= 0.0000 <Sy>= 0.0000 <Sz>= 0.5000 <S**2>= 0.7619 S= 0.5059
 <L.S>= 0.000000000000E+00
 Annihilation of the first spin contaminant:
 S**2 before annihilation     0.7619,   after     0.7501

 **********************************************************************

            Population analysis using the SCF density.

 **********************************************************************

 Orbital symmetries:
 Alpha Orbitals:
       Occupied  (A) (A) (A) (A) (A) (A) (A) (A) (A) (A) (A) (A)
                 (A) (A) (A) (A) (A) (A) (A) (A) (A) (A) (A) (A)
                 (A) (A) (A) (A) (A) (A) (A) (A) (A) (A) (A) (A)
                 (A) (A) (A) (A) (A) (A) (A) (A) (A) (A) (A) (A)
                 (A) (A) (A) (A) (A) (A) (A) (A) (A) (A) (A) (A)
                 (A) (A) (A) (A) (A) (A) (A) (A) (A) (A) (A) (A)
                 (A) (A) (A) (A) (A) (A) (A) (A) (A) (A) (A) (A)
                 (A) (A) (A) (A) (A) (A) (A) (A) (A) (A) (A) (A)
                 (A) (A) (A) (A) (A) (A) (A) (A) (A) (A) (A) (A)
                 (A) (A) (A) (A) (A) (A) (A) (A) (A) (A) (A) (A)
                 (A) (A) (A) (A) (A) (A) (A) (A) (A) (A) (A)
       Virtual   (A) (A) (A) (A) (A) (A) (A) (A) (A) (A) (A) (A)
                 (A) (A) (A) (A) (A) (A) (A) (A) (A) (A) (A) (A)
                 (A) (A) (A) (A) (A) (A) (A) (A) (A) (A) (A) (A)
                 (A) (A) (A) (A) (A) (A) (A) (A) (A) (A) (A) (A)
                 (A) (A) (A) (A) (A) (A) (A) (A) (A) (A) (A) (A)
                 (A) (A) (A) (A) (A) (A) (A) (A) (A) (A) (A) (A)
                 (A) (A) (A) (A) (A) (A) (A) (A) (A) (A) (A) (A)
                 (A) (A) (A) (A) (A) (A) (A) (A) (A) (A) (A) (A)
                 (A) (A) (A) (A) (A) (A) (A) (A) (A) (A) (A) (A)
                 (A) (A) (A) (A) (A) (A) (A) (A) (A) (A) (A) (A)
                 (A) (A) (A) (A) (A) (A) (A) (A) (A) (A) (A) (A)
                 (A) (A) (A) (A) (A) (A) (A) (A) (A) (A) (A) (A)
                 (A) (A) (A) (A) (A) (A) (A) (A) (A) (A) (A) (A)
                 (A) (A) (A) (A) (A) (A) (A) (A) (A) (A) (A) (A)
                 (A) (A) (A) (A) (A) (A) (A) (A) (A) (A) (A) (A)
                 (A) (A) (A) (A) (A) (A) (A) (A) (A) (A) (A) (A)
                 (A) (A) (A) (A) (A) (A) (A) (A) (A) (A) (A) (A)
                 (A) (A) (A) (A) (A) (A) (A) (A) (A) (A) (A) (A)
                 (A) (A) (A) (A) (A) (A) (A) (A) (A) (A) (A) (A)
                 (A) (A) (A) (A) (A) (A) (A) (A) (A) (A) (A) (A)
                 (A) (A) (A) (A) (A) (A) (A) (A) (A) (A) (A) (A)
                 (A) (A) (A) (A) (A) (A) (A) (A) (A) (A) (A) (A)
                 (A) (A) (A) (A) (A) (A) (A) (A) (A) (A) (A) (A)
                 (A) (A) (A) (A) (A) (A) (A) (A) (A) (A) (A) (A)
                 (A) (A) (A) (A) (A) (A) (A) (A) (A) (A) (A) (A)
                 (A) (A) (A) (A) (A) (A) (A) (A) (A) (A) (A) (A)
                 (A) (A) (A) (A) (A) (A) (A) (A) (A) (A) (A) (A)
                 (A) (A) (A) (A) (A) (A) (A) (A) (A) (A) (A) (A)
                 (A) (A) (A) (A) (A) (A) (A) (A) (A) (A) (A) (A)
                 (A) (A) (A) (A) (A) (A) (A) (A) (A) (A) (A) (A)
                 (A) (A) (A) (A) (A) (A) (A) (A) (A) (A) (A) (A)
                 (A) (A) (A) (A) (A) (A) (A) (A) (A) (A) (A) (A)
                 (A) (A) (A) (A) (A) (A) (A) (A) (A) (A) (A) (A)
                 (A) (A) (A) (A) (A) (A) (A) (A) (A) (A) (A) (A)
                 (A) (A) (A) (A) (A) (A) (A) (A) (A) (A) (A) (A)
                 (A) (A) (A) (A) (A) (A) (A) (A) (A) (A) (A) (A)
                 (A) (A) (A) (A) (A) (A) (A) (A) (A) (A) (A) (A)
                 (A) (A) (A) (A) (A) (A) (A) (A) (A) (A) (A) (A)
                 (A) (A) (A) (A) (A) (A) (A) (A) (A) (A) (A) (A)
                 (A) (A) (A) (A) (A) (A) (A) (A) (A) (A) (A) (A)
                 (A) (A) (A) (A) (A) (A) (A) (A) (A) (A) (A) (A)
                 (A) (A) (A) (A) (A) (A) (A) (A) (A) (A) (A) (A)
                 (A) (A) (A) (A) (A) (A) (A) (A) (A) (A) (A) (A)
                 (A) (A) (A) (A) (A) (A) (A) (A) (A) (A) (A) (A)
                 (A) (A) (A) (A) (A) (A) (A) (A) (A) (A) (A) (A)
                 (A) (A) (A) (A) (A) (A) (A) (A) (A) (A) (A) (A)
                 (A) (A) (A) (A) (A) (A) (A) (A) (A) (A) (A) (A)
                 (A) (A) (A) (A) (A) (A) (A) (A) (A) (A) (A) (A)
                 (A) (A) (A) (A) (A) (A) (A) (A) (A) (A) (A) (A)
                 (A) (A) (A) (A) (A) (A) (A) (A) (A) (A) (A) (A)
                 (A) (A) (A) (A) (A) (A) (A) (A) (A) (A) (A) (A)
                 (A) (A) (A) (A) (A) (A) (A) (A) (A) (A) (A) (A)
                 (A) (A) (A) (A) (A) (A) (A) (A) (A) (A) (A) (A)
                 (A) (A) (A) (A) (A) (A) (A) (A) (A) (A) (A) (A)
                 (A) (A) (A) (A) (A) (A) (A) (A) (A) (A) (A) (A)
                 (A) (A) (A) (A) (A) (A) (A) (A) (A) (A) (A) (A)
                 (A) (A) (A) (A) (A) (A) (A) (A) (A) (A) (A) (A)
                 (A) (A) (A) (A) (A) (A) (A) (A) (A) (A) (A) (A)
                 (A) (A) (A) (A) (A) (A) (A) (A) (A) (A) (A) (A)
                 (A) (A) (A) (A) (A) (A) (A) (A) (A) (A) (A) (A)
                 (A) (A) (A) (A) (A) (A) (A) (A) (A) (A) (A) (A)
                 (A) (A) (A) (A) (A) (A) (A) (A) (A) (A) (A) (A)
                 (A) (A) (A) (A) (A) (A) (A) (A) (A) (A) (A) (A)
                 (A) (A) (A) (A) (A) (A) (A) (A) (A) (A) (A) (A)
                 (A) (A) (A) (A) (A) (A) (A) (A) (A) (A) (A) (A)
                 (A) (A) (A) (A) (A) (A) (A) (A) (A) (A) (A) (A)
                 (A) (A) (A) (A) (A) (A) (A) (A) (A) (A) (A) (A)
                 (A) (A) (A) (A) (A) (A) (A) (A) (A) (A) (A) (A)
                 (A) (A) (A) (A) (A) (A) (A) (A) (A) (A) (A) (A)
                 (A) (A) (A) (A) (A) (A) (A) (A) (A) (A) (A) (A)
                 (A) (A) (A) (A) (A) (A)
 Beta  Orbitals:
       Occupied  (A) (A) (A) (A) (A) (A) (A) (A) (A) (A) (A) (A)
                 (A) (A) (A) (A) (A) (A) (A) (A) (A) (A) (A) (A)
                 (A) (A) (A) (A) (A) (A) (A) (A) (A) (A) (A) (A)
                 (A) (A) (A) (A) (A) (A) (A) (A) (A) (A) (A) (A)
                 (A) (A) (A) (A) (A) (A) (A) (A) (A) (A) (A) (A)
                 (A) (A) (A) (A) (A) (A) (A) (A) (A) (A) (A) (A)
                 (A) (A) (A) (A) (A) (A) (A) (A) (A) (A) (A) (A)
                 (A) (A) (A) (A) (A) (A) (A) (A) (A) (A) (A) (A)
                 (A) (A) (A) (A) (A) (A) (A) (A) (A) (A) (A) (A)
                 (A) (A) (A) (A) (A) (A) (A) (A) (A) (A) (A) (A)
                 (A) (A) (A) (A) (A) (A) (A) (A) (A) (A)
       Virtual   (A) (A) (A) (A) (A) (A) (A) (A) (A) (A) (A) (A)
                 (A) (A) (A) (A) (A) (A) (A) (A) (A) (A) (A) (A)
                 (A) (A) (A) (A) (A) (A) (A) (A) (A) (A) (A) (A)
                 (A) (A) (A) (A) (A) (A) (A) (A) (A) (A) (A) (A)
                 (A) (A) (A) (A) (A) (A) (A) (A) (A) (A) (A) (A)
                 (A) (A) (A) (A) (A) (A) (A) (A) (A) (A) (A) (A)
                 (A) (A) (A) (A) (A) (A) (A) (A) (A) (A) (A) (A)
                 (A) (A) (A) (A) (A) (A) (A) (A) (A) (A) (A) (A)
                 (A) (A) (A) (A) (A) (A) (A) (A) (A) (A) (A) (A)
                 (A) (A) (A) (A) (A) (A) (A) (A) (A) (A) (A) (A)
                 (A) (A) (A) (A) (A) (A) (A) (A) (A) (A) (A) (A)
                 (A) (A) (A) (A) (A) (A) (A) (A) (A) (A) (A) (A)
                 (A) (A) (A) (A) (A) (A) (A) (A) (A) (A) (A) (A)
                 (A) (A) (A) (A) (A) (A) (A) (A) (A) (A) (A) (A)
                 (A) (A) (A) (A) (A) (A) (A) (A) (A) (A) (A) (A)
                 (A) (A) (A) (A) (A) (A) (A) (A) (A) (A) (A) (A)
                 (A) (A) (A) (A) (A) (A) (A) (A) (A) (A) (A) (A)
                 (A) (A) (A) (A) (A) (A) (A) (A) (A) (A) (A) (A)
                 (A) (A) (A) (A) (A) (A) (A) (A) (A) (A) (A) (A)
                 (A) (A) (A) (A) (A) (A) (A) (A) (A) (A) (A) (A)
                 (A) (A) (A) (A) (A) (A) (A) (A) (A) (A) (A) (A)
                 (A) (A) (A) (A) (A) (A) (A) (A) (A) (A) (A) (A)
                 (A) (A) (A) (A) (A) (A) (A) (A) (A) (A) (A) (A)
                 (A) (A) (A) (A) (A) (A) (A) (A) (A) (A) (A) (A)
                 (A) (A) (A) (A) (A) (A) (A) (A) (A) (A) (A) (A)
                 (A) (A) (A) (A) (A) (A) (A) (A) (A) (A) (A) (A)
                 (A) (A) (A) (A) (A) (A) (A) (A) (A) (A) (A) (A)
                 (A) (A) (A) (A) (A) (A) (A) (A) (A) (A) (A) (A)
                 (A) (A) (A) (A) (A) (A) (A) (A) (A) (A) (A) (A)
                 (A) (A) (A) (A) (A) (A) (A) (A) (A) (A) (A) (A)
                 (A) (A) (A) (A) (A) (A) (A) (A) (A) (A) (A) (A)
                 (A) (A) (A) (A) (A) (A) (A) (A) (A) (A) (A) (A)
                 (A) (A) (A) (A) (A) (A) (A) (A) (A) (A) (A) (A)
                 (A) (A) (A) (A) (A) (A) (A) (A) (A) (A) (A) (A)
                 (A) (A) (A) (A) (A) (A) (A) (A) (A) (A) (A) (A)
                 (A) (A) (A) (A) (A) (A) (A) (A) (A) (A) (A) (A)
                 (A) (A) (A) (A) (A) (A) (A) (A) (A) (A) (A) (A)
                 (A) (A) (A) (A) (A) (A) (A) (A) (A) (A) (A) (A)
                 (A) (A) (A) (A) (A) (A) (A) (A) (A) (A) (A) (A)
                 (A) (A) (A) (A) (A) (A) (A) (A) (A) (A) (A) (A)
                 (A) (A) (A) (A) (A) (A) (A) (A) (A) (A) (A) (A)
                 (A) (A) (A) (A) (A) (A) (A) (A) (A) (A) (A) (A)
                 (A) (A) (A) (A) (A) (A) (A) (A) (A) (A) (A) (A)
                 (A) (A) (A) (A) (A) (A) (A) (A) (A) (A) (A) (A)
                 (A) (A) (A) (A) (A) (A) (A) (A) (A) (A) (A) (A)
                 (A) (A) (A) (A) (A) (A) (A) (A) (A) (A) (A) (A)
                 (A) (A) (A) (A) (A) (A) (A) (A) (A) (A) (A) (A)
                 (A) (A) (A) (A) (A) (A) (A) (A) (A) (A) (A) (A)
                 (A) (A) (A) (A) (A) (A) (A) (A) (A) (A) (A) (A)
                 (A) (A) (A) (A) (A) (A) (A) (A) (A) (A) (A) (A)
                 (A) (A) (A) (A) (A) (A) (A) (A) (A) (A) (A) (A)
                 (A) (A) (A) (A) (A) (A) (A) (A) (A) (A) (A) (A)
                 (A) (A) (A) (A) (A) (A) (A) (A) (A) (A) (A) (A)
                 (A) (A) (A) (A) (A) (A) (A) (A) (A) (A) (A) (A)
                 (A) (A) (A) (A) (A) (A) (A) (A) (A) (A) (A) (A)
                 (A) (A) (A) (A) (A) (A) (A) (A) (A) (A) (A) (A)
                 (A) (A) (A) (A) (A) (A) (A) (A) (A) (A) (A) (A)
                 (A) (A) (A) (A) (A) (A) (A) (A) (A) (A) (A) (A)
                 (A) (A) (A) (A) (A) (A) (A) (A) (A) (A) (A) (A)
                 (A) (A) (A) (A) (A) (A) (A) (A) (A) (A) (A) (A)
                 (A) (A) (A) (A) (A) (A) (A) (A) (A) (A) (A) (A)
                 (A) (A) (A) (A) (A) (A) (A) (A) (A) (A) (A) (A)
                 (A) (A) (A) (A) (A) (A) (A) (A) (A) (A) (A) (A)
                 (A) (A) (A) (A) (A) (A) (A) (A) (A) (A) (A) (A)
                 (A) (A) (A) (A) (A) (A) (A) (A) (A) (A) (A) (A)
                 (A) (A) (A) (A) (A) (A) (A) (A) (A) (A) (A) (A)
                 (A) (A) (A) (A) (A) (A) (A) (A) (A) (A) (A) (A)
                 (A) (A) (A) (A) (A) (A) (A) (A) (A) (A) (A) (A)
                 (A) (A) (A) (A) (A) (A) (A) (A) (A) (A) (A) (A)
                 (A) (A) (A) (A) (A) (A) (A) (A) (A) (A) (A) (A)
                 (A) (A) (A) (A) (A) (A) (A)
 The electronic state is 2-A.
 Alpha  occ. eigenvalues -- -276.73125 -32.52713 -28.20113 -28.20036 -28.19637
 Alpha  occ. eigenvalues --  -18.99906 -14.26013 -14.22500 -14.22337 -14.21304
 Alpha  occ. eigenvalues --  -14.21167 -14.20769 -10.15619 -10.13554 -10.13546
 Alpha  occ. eigenvalues --  -10.13484 -10.13408 -10.13204 -10.13101 -10.12352
 Alpha  occ. eigenvalues --  -10.12186 -10.12027 -10.11116 -10.09810 -10.09761
 Alpha  occ. eigenvalues --  -10.09760 -10.09639 -10.09591 -10.09518 -10.09017
 Alpha  occ. eigenvalues --  -10.08950 -10.08758 -10.08491 -10.08476 -10.08201
 Alpha  occ. eigenvalues --  -10.08165 -10.07944 -10.07729  -3.69310  -2.39731
 Alpha  occ. eigenvalues --   -2.39640  -2.39528  -1.05628  -1.05554  -1.00385
 Alpha  occ. eigenvalues --   -0.99103  -0.99072  -0.97088  -0.92593  -0.87829
 Alpha  occ. eigenvalues --   -0.85815  -0.82687  -0.82390  -0.82116  -0.81737
 Alpha  occ. eigenvalues --   -0.81166  -0.80378  -0.78383  -0.77915  -0.76355
 Alpha  occ. eigenvalues --   -0.75494  -0.70004  -0.69130  -0.68013  -0.67724
 Alpha  occ. eigenvalues --   -0.66774  -0.64912  -0.64545  -0.64497  -0.63301
 Alpha  occ. eigenvalues --   -0.61214  -0.60462  -0.59925  -0.59293  -0.59118
 Alpha  occ. eigenvalues --   -0.56649  -0.56297  -0.55887  -0.55632  -0.55128
 Alpha  occ. eigenvalues --   -0.53896  -0.53786  -0.53426  -0.53291  -0.52190
 Alpha  occ. eigenvalues --   -0.51575  -0.50479  -0.49888  -0.49186  -0.48887
 Alpha  occ. eigenvalues --   -0.48232  -0.47627  -0.47347  -0.46875  -0.46586
 Alpha  occ. eigenvalues --   -0.45727  -0.45161  -0.45053  -0.44995  -0.44544
 Alpha  occ. eigenvalues --   -0.44304  -0.44223  -0.44177  -0.43599  -0.43513
 Alpha  occ. eigenvalues --   -0.43421  -0.42544  -0.42094  -0.41958  -0.41899
 Alpha  occ. eigenvalues --   -0.41446  -0.41225  -0.40344  -0.40114  -0.39837
 Alpha  occ. eigenvalues --   -0.39496  -0.38955  -0.38566  -0.37929  -0.37841
 Alpha  occ. eigenvalues --   -0.37156  -0.36614  -0.34095  -0.32106  -0.30599
 Alpha  occ. eigenvalues --   -0.30425  -0.30306  -0.28773  -0.28058  -0.27109
 Alpha  occ. eigenvalues --   -0.25464
 Alpha virt. eigenvalues --   -0.19488  -0.16757  -0.16227  -0.14604  -0.13841
 Alpha virt. eigenvalues --   -0.12097  -0.10842  -0.10769  -0.09664  -0.09471
 Alpha virt. eigenvalues --   -0.09139  -0.08632  -0.08290  -0.08032  -0.07980
 Alpha virt. eigenvalues --   -0.07829  -0.07717  -0.07383  -0.06594  -0.06335
 Alpha virt. eigenvalues --   -0.06225  -0.05498  -0.05376  -0.05151  -0.04995
 Alpha virt. eigenvalues --   -0.04564  -0.04454  -0.04089  -0.03766  -0.03516
 Alpha virt. eigenvalues --   -0.03265  -0.03029  -0.02857  -0.02605  -0.02143
 Alpha virt. eigenvalues --   -0.02070  -0.01805  -0.01601  -0.01160  -0.01038
 Alpha virt. eigenvalues --   -0.00833  -0.00651  -0.00321   0.00056   0.00645
 Alpha virt. eigenvalues --    0.00742   0.00845   0.00959   0.00992   0.01231
 Alpha virt. eigenvalues --    0.01519   0.01627   0.01996   0.02259   0.02391
 Alpha virt. eigenvalues --    0.02567   0.02618   0.02915   0.03178   0.03293
 Alpha virt. eigenvalues --    0.03377   0.03677   0.03707   0.03828   0.04019
 Alpha virt. eigenvalues --    0.04129   0.04166   0.04248   0.04730   0.04779
 Alpha virt. eigenvalues --    0.04809   0.05061   0.05161   0.05283   0.05460
 Alpha virt. eigenvalues --    0.05649   0.05770   0.05830   0.06084   0.06254
 Alpha virt. eigenvalues --    0.06319   0.06415   0.06656   0.06824   0.06845
 Alpha virt. eigenvalues --    0.06947   0.07218   0.07389   0.07479   0.07661
 Alpha virt. eigenvalues --    0.07710   0.07884   0.08158   0.08282   0.08461
 Alpha virt. eigenvalues --    0.08591   0.08625   0.08675   0.08821   0.09052
 Alpha virt. eigenvalues --    0.09113   0.09497   0.09556   0.09723   0.09786
 Alpha virt. eigenvalues --    0.10014   0.10152   0.10349   0.10541   0.10686
 Alpha virt. eigenvalues --    0.10861   0.11189   0.11287   0.11414   0.11734
 Alpha virt. eigenvalues --    0.11959   0.12117   0.12315   0.12515   0.12627
 Alpha virt. eigenvalues --    0.12832   0.13063   0.13307   0.13516   0.13997
 Alpha virt. eigenvalues --    0.14119   0.14443   0.14627   0.14771   0.14970
 Alpha virt. eigenvalues --    0.15198   0.15553   0.15773   0.15991   0.16260
 Alpha virt. eigenvalues --    0.16380   0.16645   0.16801   0.17018   0.17127
 Alpha virt. eigenvalues --    0.17526   0.17821   0.17902   0.18092   0.18148
 Alpha virt. eigenvalues --    0.18323   0.18458   0.18881   0.18930   0.19113
 Alpha virt. eigenvalues --    0.19224   0.19601   0.19689   0.19759   0.19949
 Alpha virt. eigenvalues --    0.20184   0.20329   0.20636   0.20786   0.20937
 Alpha virt. eigenvalues --    0.21313   0.21421   0.21480   0.21618   0.21684
 Alpha virt. eigenvalues --    0.21986   0.22229   0.22362   0.22455   0.22910
 Alpha virt. eigenvalues --    0.22985   0.23068   0.23195   0.23445   0.23623
 Alpha virt. eigenvalues --    0.23762   0.24055   0.24305   0.24413   0.24587
 Alpha virt. eigenvalues --    0.24948   0.24992   0.25284   0.25453   0.25693
 Alpha virt. eigenvalues --    0.25966   0.25992   0.26113   0.26413   0.26480
 Alpha virt. eigenvalues --    0.26800   0.27335   0.27527   0.27916   0.27970
 Alpha virt. eigenvalues --    0.28199   0.28412   0.28794   0.28995   0.29236
 Alpha virt. eigenvalues --    0.29440   0.29706   0.30229   0.30498   0.30698
 Alpha virt. eigenvalues --    0.31039   0.31254   0.31572   0.31913   0.32221
 Alpha virt. eigenvalues --    0.32938   0.33177   0.33821   0.34129   0.34470
 Alpha virt. eigenvalues --    0.34743   0.35152   0.35282   0.35782   0.36374
 Alpha virt. eigenvalues --    0.36742   0.37127   0.37431   0.37994   0.38054
 Alpha virt. eigenvalues --    0.38884   0.39031   0.39365   0.39666   0.39954
 Alpha virt. eigenvalues --    0.40263   0.40720   0.41328   0.41994   0.42250
 Alpha virt. eigenvalues --    0.42745   0.43180   0.43786   0.44207   0.44306
 Alpha virt. eigenvalues --    0.44685   0.45366   0.45781   0.46120   0.46211
 Alpha virt. eigenvalues --    0.46474   0.47374   0.47527   0.47980   0.48442
 Alpha virt. eigenvalues --    0.48589   0.48924   0.49242   0.49618   0.50110
 Alpha virt. eigenvalues --    0.50550   0.50956   0.51226   0.51631   0.52133
 Alpha virt. eigenvalues --    0.52314   0.52635   0.52891   0.53167   0.53666
 Alpha virt. eigenvalues --    0.54171   0.54506   0.54739   0.55211   0.55508
 Alpha virt. eigenvalues --    0.56010   0.56166   0.56327   0.56729   0.57191
 Alpha virt. eigenvalues --    0.57272   0.57632   0.57749   0.58153   0.58653
 Alpha virt. eigenvalues --    0.59343   0.59660   0.59889   0.60094   0.60515
 Alpha virt. eigenvalues --    0.60910   0.61080   0.61493   0.61647   0.62149
 Alpha virt. eigenvalues --    0.62528   0.62913   0.63278   0.63809   0.64241
 Alpha virt. eigenvalues --    0.64608   0.64732   0.64938   0.65181   0.65310
 Alpha virt. eigenvalues --    0.65682   0.65897   0.66100   0.66460   0.66932
 Alpha virt. eigenvalues --    0.67265   0.67278   0.67745   0.67761   0.68108
 Alpha virt. eigenvalues --    0.68660   0.68869   0.69040   0.69366   0.69615
 Alpha virt. eigenvalues --    0.70096   0.70394   0.70691   0.70968   0.71655
 Alpha virt. eigenvalues --    0.72224   0.72559   0.73274   0.73753   0.74598
 Alpha virt. eigenvalues --    0.75112   0.75267   0.76116   0.76513   0.76854
 Alpha virt. eigenvalues --    0.77543   0.77896   0.78049   0.78783   0.79089
 Alpha virt. eigenvalues --    0.79769   0.80396   0.80810   0.81717   0.82118
 Alpha virt. eigenvalues --    0.83173   0.83322   0.83974   0.84203   0.84801
 Alpha virt. eigenvalues --    0.85547   0.85826   0.86122   0.86747   0.87183
 Alpha virt. eigenvalues --    0.88078   0.88355   0.88533   0.89201   0.89623
 Alpha virt. eigenvalues --    0.90449   0.91092   0.91283   0.91801   0.92195
 Alpha virt. eigenvalues --    0.92671   0.93264   0.94116   0.94716   0.94900
 Alpha virt. eigenvalues --    0.95492   0.96363   0.97152   0.97555   0.98196
 Alpha virt. eigenvalues --    0.98465   0.99170   0.99728   1.00016   1.00384
 Alpha virt. eigenvalues --    1.01247   1.01761   1.02339   1.02812   1.03540
 Alpha virt. eigenvalues --    1.03872   1.04261   1.05045   1.06047   1.06322
 Alpha virt. eigenvalues --    1.06725   1.06917   1.08460   1.08831   1.09238
 Alpha virt. eigenvalues --    1.10007   1.10423   1.11205   1.12517   1.13031
 Alpha virt. eigenvalues --    1.13203   1.13725   1.14209   1.14764   1.15189
 Alpha virt. eigenvalues --    1.15873   1.16789   1.16921   1.18449   1.19751
 Alpha virt. eigenvalues --    1.20182   1.20842   1.21410   1.22028   1.22790
 Alpha virt. eigenvalues --    1.23814   1.24346   1.24930   1.25527   1.26302
 Alpha virt. eigenvalues --    1.26574   1.27998   1.28310   1.29653   1.29885
 Alpha virt. eigenvalues --    1.30210   1.30806   1.31719   1.33079   1.33570
 Alpha virt. eigenvalues --    1.34444   1.34858   1.35608   1.35869   1.36044
 Alpha virt. eigenvalues --    1.37029   1.37422   1.38273   1.38977   1.39511
 Alpha virt. eigenvalues --    1.40448   1.40700   1.41432   1.42121   1.42349
 Alpha virt. eigenvalues --    1.42988   1.43640   1.43816   1.44195   1.44888
 Alpha virt. eigenvalues --    1.45447   1.46087   1.46552   1.46829   1.47416
 Alpha virt. eigenvalues --    1.47543   1.48060   1.48688   1.48877   1.49378
 Alpha virt. eigenvalues --    1.49576   1.49820   1.50048   1.50841   1.51262
 Alpha virt. eigenvalues --    1.51974   1.52512   1.53038   1.53161   1.53764
 Alpha virt. eigenvalues --    1.54519   1.55450   1.55773   1.55836   1.56589
 Alpha virt. eigenvalues --    1.56944   1.57594   1.57924   1.58173   1.58337
 Alpha virt. eigenvalues --    1.58505   1.59262   1.59510   1.60082   1.60618
 Alpha virt. eigenvalues --    1.60820   1.61296   1.61431   1.62485   1.63004
 Alpha virt. eigenvalues --    1.63664   1.63728   1.64359   1.64429   1.64800
 Alpha virt. eigenvalues --    1.65519   1.65753   1.66219   1.66780   1.67429
 Alpha virt. eigenvalues --    1.67717   1.68546   1.68757   1.69074   1.69822
 Alpha virt. eigenvalues --    1.70215   1.71359   1.71559   1.71846   1.72519
 Alpha virt. eigenvalues --    1.72599   1.73566   1.74119   1.74358   1.75010
 Alpha virt. eigenvalues --    1.75928   1.76416   1.76687   1.77103   1.77899
 Alpha virt. eigenvalues --    1.78220   1.78429   1.78977   1.79295   1.80005
 Alpha virt. eigenvalues --    1.80334   1.80541   1.81010   1.81420   1.82350
 Alpha virt. eigenvalues --    1.82440   1.82565   1.83731   1.84261   1.84746
 Alpha virt. eigenvalues --    1.85390   1.87125   1.87461   1.88277   1.89053
 Alpha virt. eigenvalues --    1.90085   1.90522   1.91198   1.91696   1.92570
 Alpha virt. eigenvalues --    1.93010   1.93392   1.93858   1.94182   1.94557
 Alpha virt. eigenvalues --    1.95289   1.96066   1.96378   1.96636   1.97284
 Alpha virt. eigenvalues --    1.98447   1.99250   2.01270   2.02446   2.02710
 Alpha virt. eigenvalues --    2.03369   2.04441   2.04778   2.05058   2.05705
 Alpha virt. eigenvalues --    2.06626   2.07463   2.08370   2.08486   2.09184
 Alpha virt. eigenvalues --    2.09758   2.09901   2.10522   2.11390   2.11752
 Alpha virt. eigenvalues --    2.12839   2.13287   2.13840   2.14808   2.15096
 Alpha virt. eigenvalues --    2.15331   2.16238   2.17107   2.17193   2.18162
 Alpha virt. eigenvalues --    2.19000   2.20103   2.20206   2.21797   2.23706
 Alpha virt. eigenvalues --    2.24140   2.24853   2.26159   2.27943   2.29946
 Alpha virt. eigenvalues --    2.30487   2.30586   2.31790   2.32172   2.32555
 Alpha virt. eigenvalues --    2.32922   2.34882   2.36418   2.37132   2.37560
 Alpha virt. eigenvalues --    2.38314   2.39732   2.39980   2.40923   2.41434
 Alpha virt. eigenvalues --    2.41662   2.42052   2.42580   2.43475   2.44919
 Alpha virt. eigenvalues --    2.45604   2.45713   2.45998   2.46612   2.47527
 Alpha virt. eigenvalues --    2.48880   2.49245   2.49645   2.50149   2.51401
 Alpha virt. eigenvalues --    2.51813   2.52817   2.53397   2.53768   2.54186
 Alpha virt. eigenvalues --    2.54965   2.56511   2.56920   2.57535   2.57737
 Alpha virt. eigenvalues --    2.58917   2.59487   2.60350   2.60729   2.60951
 Alpha virt. eigenvalues --    2.61863   2.62904   2.63080   2.63700   2.64436
 Alpha virt. eigenvalues --    2.65355   2.66386   2.66758   2.67123   2.68217
 Alpha virt. eigenvalues --    2.68657   2.68885   2.69864   2.70613   2.71407
 Alpha virt. eigenvalues --    2.71458   2.73121   2.73237   2.73846   2.74554
 Alpha virt. eigenvalues --    2.75227   2.75459   2.76349   2.77786   2.77908
 Alpha virt. eigenvalues --    2.78253   2.79262   2.80380   2.81275   2.81782
 Alpha virt. eigenvalues --    2.82420   2.83127   2.83790   2.84584   2.84917
 Alpha virt. eigenvalues --    2.85303   2.85589   2.86018   2.86590   2.86881
 Alpha virt. eigenvalues --    2.87443   2.87604   2.88418   2.88960   2.89783
 Alpha virt. eigenvalues --    2.89937   2.90285   2.90702   2.92020   2.92699
 Alpha virt. eigenvalues --    2.93818   2.94665   2.95094   2.95371   2.96410
 Alpha virt. eigenvalues --    2.97142   2.97312   2.97939   2.98427   2.98995
 Alpha virt. eigenvalues --    2.99768   3.00455   3.01171   3.02093   3.02846
 Alpha virt. eigenvalues --    3.04199   3.05842   3.06133   3.06810   3.07817
 Alpha virt. eigenvalues --    3.09510   3.10353   3.10968   3.11955   3.13536
 Alpha virt. eigenvalues --    3.14125   3.15392   3.16198   3.17895   3.18179
 Alpha virt. eigenvalues --    3.19771   3.21061   3.21445   3.22126   3.25120
 Alpha virt. eigenvalues --    3.26954   3.28629   3.33479   3.33717   3.33970
 Alpha virt. eigenvalues --    3.35346   3.35821   3.37578   3.40721   3.43440
 Alpha virt. eigenvalues --    3.44232   3.47261   3.50131   3.52282   3.52588
 Alpha virt. eigenvalues --    3.54026   3.55095   3.56098   3.57064   3.57430
 Alpha virt. eigenvalues --    3.58292   3.59512   3.59820   3.60267   3.64091
 Alpha virt. eigenvalues --    3.65494   3.70469   3.76251   3.76879   3.78600
 Alpha virt. eigenvalues --    3.79382   3.79996   3.81869   3.83203   3.84577
 Alpha virt. eigenvalues --    3.85347   3.85850   3.86669   3.89119   3.90684
 Alpha virt. eigenvalues --    3.91137   3.91509   3.94963   3.95990   3.96497
 Alpha virt. eigenvalues --    3.96924   3.98909   4.03945   4.04622   4.06425
 Alpha virt. eigenvalues --    4.09612   4.11997   4.13289   4.15000   4.15151
 Alpha virt. eigenvalues --    4.15855   4.16676   4.19301   4.21969   4.23078
 Alpha virt. eigenvalues --    4.29937   4.33171   4.36317   4.38785   4.58374
 Alpha virt. eigenvalues --    4.59300   4.60683   4.70820   4.72256   4.74401
 Alpha virt. eigenvalues --    4.83439   4.85193   4.93556   4.99303   5.04928
 Alpha virt. eigenvalues --    5.10517   5.20138   5.36921   5.50086   6.23095
 Alpha virt. eigenvalues --    6.24700   6.38644   6.58500   6.80271   8.42972
 Alpha virt. eigenvalues --    8.50431   8.56276  23.58572  23.72487  23.72885
 Alpha virt. eigenvalues --   23.75702  23.76563  23.77909  23.79302  23.79895
 Alpha virt. eigenvalues --   23.80162  23.80427  23.82800  23.84276  23.85563
 Alpha virt. eigenvalues --   23.86396  23.86806  23.89455  23.90089  23.90819
 Alpha virt. eigenvalues --   23.91707  23.93354  23.94905  24.00209  24.02745
 Alpha virt. eigenvalues --   24.04199  24.05746  24.08072  28.14452  33.98597
 Alpha virt. eigenvalues --   34.02716  34.07592  35.51731  35.57776  35.58964
 Alpha virt. eigenvalues --   35.61896  35.63095  35.64750  49.89677 153.70337
 Alpha virt. eigenvalues --  804.77938
  Beta  occ. eigenvalues -- -276.73125 -32.50922 -28.19102 -28.19023 -28.17347
  Beta  occ. eigenvalues --  -18.99798 -14.26009 -14.22501 -14.22335 -14.21309
  Beta  occ. eigenvalues --  -14.21173 -14.20526 -10.15625 -10.13577 -10.13566
  Beta  occ. eigenvalues --  -10.13522 -10.13446 -10.13228 -10.13124 -10.12342
  Beta  occ. eigenvalues --  -10.12189 -10.12029 -10.11108 -10.09810 -10.09760
  Beta  occ. eigenvalues --  -10.09760 -10.09638 -10.09591 -10.09519 -10.09018
  Beta  occ. eigenvalues --  -10.08951 -10.08757 -10.08480 -10.08462 -10.08186
  Beta  occ. eigenvalues --  -10.08163 -10.07943 -10.07730  -3.64977  -2.36600
  Beta  occ. eigenvalues --   -2.36418  -2.32946  -1.05487  -1.05466  -1.00393
  Beta  occ. eigenvalues --   -0.99115  -0.99085  -0.97095  -0.92442  -0.87813
  Beta  occ. eigenvalues --   -0.85835  -0.82702  -0.82401  -0.82119  -0.81739
  Beta  occ. eigenvalues --   -0.81170  -0.80379  -0.78375  -0.77894  -0.76349
  Beta  occ. eigenvalues --   -0.75526  -0.70012  -0.69134  -0.67993  -0.67638
  Beta  occ. eigenvalues --   -0.66776  -0.64869  -0.64558  -0.64513  -0.63308
  Beta  occ. eigenvalues --   -0.61219  -0.60418  -0.59905  -0.59246  -0.59067
  Beta  occ. eigenvalues --   -0.56660  -0.56309  -0.55902  -0.55601  -0.55040
  Beta  occ. eigenvalues --   -0.53888  -0.53795  -0.53431  -0.53296  -0.52190
  Beta  occ. eigenvalues --   -0.51569  -0.50440  -0.49815  -0.49179  -0.48869
  Beta  occ. eigenvalues --   -0.48221  -0.47584  -0.47295  -0.46731  -0.46566
  Beta  occ. eigenvalues --   -0.45723  -0.45143  -0.45037  -0.44975  -0.44531
  Beta  occ. eigenvalues --   -0.44267  -0.44206  -0.44085  -0.43589  -0.43340
  Beta  occ. eigenvalues --   -0.43121  -0.42277  -0.41968  -0.41911  -0.41733
  Beta  occ. eigenvalues --   -0.41447  -0.41215  -0.40340  -0.39840  -0.39789
  Beta  occ. eigenvalues --   -0.38881  -0.38561  -0.38350  -0.37815  -0.37525
  Beta  occ. eigenvalues --   -0.37091  -0.36605  -0.34017  -0.31636  -0.30597
  Beta  occ. eigenvalues --   -0.30292  -0.28692  -0.27815  -0.26919  -0.26191
  Beta virt. eigenvalues --   -0.19435  -0.17407  -0.16230  -0.14588  -0.14166
  Beta virt. eigenvalues --   -0.13803  -0.11926  -0.10840  -0.10756  -0.09579
  Beta virt. eigenvalues --   -0.09441  -0.09128  -0.08599  -0.08281  -0.08036
  Beta virt. eigenvalues --   -0.07966  -0.07812  -0.07704  -0.07389  -0.06590
  Beta virt. eigenvalues --   -0.06331  -0.06224  -0.05477  -0.05356  -0.05137
  Beta virt. eigenvalues --   -0.04988  -0.04561  -0.04454  -0.04083  -0.03765
  Beta virt. eigenvalues --   -0.03490  -0.03233  -0.03017  -0.02849  -0.02596
  Beta virt. eigenvalues --   -0.02133  -0.02047  -0.01798  -0.01591  -0.01142
  Beta virt. eigenvalues --   -0.01030  -0.00825  -0.00645  -0.00317   0.00064
  Beta virt. eigenvalues --    0.00648   0.00752   0.00853   0.00960   0.01007
  Beta virt. eigenvalues --    0.01230   0.01521   0.01641   0.02010   0.02260
  Beta virt. eigenvalues --    0.02411   0.02575   0.02622   0.02925   0.03188
  Beta virt. eigenvalues --    0.03297   0.03397   0.03681   0.03716   0.03832
  Beta virt. eigenvalues --    0.04023   0.04143   0.04178   0.04252   0.04741
  Beta virt. eigenvalues --    0.04787   0.04821   0.05072   0.05163   0.05294
  Beta virt. eigenvalues --    0.05464   0.05663   0.05774   0.05835   0.06096
  Beta virt. eigenvalues --    0.06261   0.06336   0.06423   0.06658   0.06846
  Beta virt. eigenvalues --    0.06856   0.06956   0.07232   0.07397   0.07509
  Beta virt. eigenvalues --    0.07665   0.07714   0.07896   0.08162   0.08285
  Beta virt. eigenvalues --    0.08468   0.08605   0.08628   0.08681   0.08829
  Beta virt. eigenvalues --    0.09059   0.09125   0.09517   0.09588   0.09729
  Beta virt. eigenvalues --    0.09799   0.10026   0.10161   0.10357   0.10548
  Beta virt. eigenvalues --    0.10687   0.10865   0.11196   0.11295   0.11428
  Beta virt. eigenvalues --    0.11745   0.11974   0.12129   0.12342   0.12526
  Beta virt. eigenvalues --    0.12647   0.12839   0.13091   0.13357   0.13545
  Beta virt. eigenvalues --    0.14022   0.14148   0.14529   0.14724   0.14800
  Beta virt. eigenvalues --    0.14990   0.15248   0.15564   0.15795   0.16004
  Beta virt. eigenvalues --    0.16303   0.16489   0.16654   0.16821   0.17058
  Beta virt. eigenvalues --    0.17143   0.17537   0.17841   0.17919   0.18142
  Beta virt. eigenvalues --    0.18167   0.18328   0.18565   0.18936   0.18985
  Beta virt. eigenvalues --    0.19163   0.19248   0.19616   0.19696   0.19768
  Beta virt. eigenvalues --    0.20003   0.20196   0.20387   0.20662   0.20811
  Beta virt. eigenvalues --    0.20945   0.21326   0.21420   0.21513   0.21621
  Beta virt. eigenvalues --    0.21750   0.21997   0.22376   0.22394   0.22469
  Beta virt. eigenvalues --    0.22917   0.23057   0.23085   0.23228   0.23484
  Beta virt. eigenvalues --    0.23623   0.23766   0.24106   0.24317   0.24430
  Beta virt. eigenvalues --    0.24600   0.24965   0.25036   0.25308   0.25489
  Beta virt. eigenvalues --    0.25705   0.25993   0.26021   0.26122   0.26460
  Beta virt. eigenvalues --    0.26530   0.26820   0.27382   0.27531   0.27938
  Beta virt. eigenvalues --    0.27995   0.28235   0.28425   0.28837   0.29015
  Beta virt. eigenvalues --    0.29248   0.29475   0.29732   0.30295   0.30540
  Beta virt. eigenvalues --    0.30723   0.31092   0.31285   0.31588   0.31927
  Beta virt. eigenvalues --    0.32260   0.32980   0.33201   0.33842   0.34160
  Beta virt. eigenvalues --    0.34500   0.34789   0.35176   0.35308   0.35820
  Beta virt. eigenvalues --    0.36421   0.36774   0.37172   0.37483   0.38027
  Beta virt. eigenvalues --    0.38095   0.38896   0.39083   0.39403   0.39690
  Beta virt. eigenvalues --    0.39995   0.40303   0.40776   0.41367   0.42047
  Beta virt. eigenvalues --    0.42377   0.42784   0.43221   0.43801   0.44228
  Beta virt. eigenvalues --    0.44350   0.44711   0.45386   0.45810   0.46154
  Beta virt. eigenvalues --    0.46250   0.46507   0.47401   0.47534   0.48011
  Beta virt. eigenvalues --    0.48461   0.48624   0.48937   0.49259   0.49665
  Beta virt. eigenvalues --    0.50125   0.50565   0.50989   0.51260   0.51639
  Beta virt. eigenvalues --    0.52140   0.52316   0.52671   0.52911   0.53186
  Beta virt. eigenvalues --    0.53672   0.54205   0.54515   0.54805   0.55220
  Beta virt. eigenvalues --    0.55511   0.56075   0.56209   0.56324   0.56756
  Beta virt. eigenvalues --    0.57221   0.57268   0.57660   0.57748   0.58166
  Beta virt. eigenvalues --    0.58681   0.59359   0.59656   0.59892   0.60100
  Beta virt. eigenvalues --    0.60533   0.60917   0.61100   0.61498   0.61661
  Beta virt. eigenvalues --    0.62164   0.62546   0.62937   0.63307   0.63847
  Beta virt. eigenvalues --    0.64281   0.64630   0.64735   0.64935   0.65188
  Beta virt. eigenvalues --    0.65344   0.65697   0.65905   0.66117   0.66463
  Beta virt. eigenvalues --    0.66932   0.67284   0.67285   0.67762   0.67785
  Beta virt. eigenvalues --    0.68137   0.68674   0.68877   0.69048   0.69381
  Beta virt. eigenvalues --    0.69644   0.70096   0.70427   0.70703   0.70976
  Beta virt. eigenvalues --    0.71689   0.72229   0.72569   0.73277   0.73783
  Beta virt. eigenvalues --    0.74650   0.75163   0.75281   0.76149   0.76540
  Beta virt. eigenvalues --    0.76909   0.77562   0.77919   0.78050   0.78799
  Beta virt. eigenvalues --    0.79135   0.79785   0.80401   0.80833   0.81741
  Beta virt. eigenvalues --    0.82137   0.83172   0.83341   0.83988   0.84227
  Beta virt. eigenvalues --    0.84919   0.85571   0.85880   0.86141   0.86765
  Beta virt. eigenvalues --    0.87214   0.88117   0.88361   0.88563   0.89216
  Beta virt. eigenvalues --    0.89646   0.90508   0.91129   0.91316   0.91824
  Beta virt. eigenvalues --    0.92202   0.92714   0.93278   0.94132   0.94747
  Beta virt. eigenvalues --    0.94921   0.95518   0.96373   0.97173   0.97582
  Beta virt. eigenvalues --    0.98209   0.98497   0.99194   0.99744   1.00067
  Beta virt. eigenvalues --    1.00394   1.01292   1.01781   1.02369   1.02849
  Beta virt. eigenvalues --    1.03561   1.03907   1.04284   1.05069   1.06070
  Beta virt. eigenvalues --    1.06335   1.06753   1.06939   1.08474   1.08858
  Beta virt. eigenvalues --    1.09264   1.10077   1.10449   1.11224   1.12587
  Beta virt. eigenvalues --    1.13131   1.13234   1.13745   1.14271   1.14819
  Beta virt. eigenvalues --    1.15203   1.15906   1.16815   1.16967   1.18490
  Beta virt. eigenvalues --    1.19831   1.20220   1.20856   1.21456   1.22445
  Beta virt. eigenvalues --    1.22832   1.23871   1.24403   1.24992   1.25568
  Beta virt. eigenvalues --    1.26340   1.26644   1.28038   1.28416   1.29734
  Beta virt. eigenvalues --    1.29909   1.30221   1.30865   1.31756   1.33103
  Beta virt. eigenvalues --    1.33584   1.34570   1.35027   1.35689   1.35908
  Beta virt. eigenvalues --    1.36119   1.37085   1.37478   1.38310   1.39007
  Beta virt. eigenvalues --    1.39555   1.40548   1.40701   1.41440   1.42160
  Beta virt. eigenvalues --    1.42369   1.43002   1.43659   1.43835   1.44250
  Beta virt. eigenvalues --    1.44911   1.45462   1.46122   1.46554   1.46846
  Beta virt. eigenvalues --    1.47423   1.47564   1.48104   1.48718   1.48922
  Beta virt. eigenvalues --    1.49396   1.49604   1.49835   1.50061   1.50887
  Beta virt. eigenvalues --    1.51339   1.52037   1.52563   1.53140   1.53185
  Beta virt. eigenvalues --    1.53866   1.54594   1.55507   1.55835   1.56030
  Beta virt. eigenvalues --    1.56625   1.56980   1.57662   1.58048   1.58286
  Beta virt. eigenvalues --    1.58427   1.58592   1.59334   1.59567   1.60145
  Beta virt. eigenvalues --    1.60645   1.60874   1.61337   1.61520   1.62656
  Beta virt. eigenvalues --    1.63101   1.63678   1.63864   1.64404   1.64507
  Beta virt. eigenvalues --    1.64853   1.65635   1.65899   1.66248   1.66939
  Beta virt. eigenvalues --    1.67497   1.67765   1.68634   1.68859   1.69218
  Beta virt. eigenvalues --    1.69882   1.70417   1.71423   1.71614   1.71947
  Beta virt. eigenvalues --    1.72587   1.72738   1.73644   1.74227   1.74557
  Beta virt. eigenvalues --    1.75068   1.75960   1.76482   1.76774   1.77160
  Beta virt. eigenvalues --    1.77954   1.78278   1.78582   1.79035   1.79422
  Beta virt. eigenvalues --    1.80027   1.80367   1.80560   1.81044   1.81492
  Beta virt. eigenvalues --    1.82443   1.82511   1.82653   1.83921   1.84329
  Beta virt. eigenvalues --    1.84827   1.85492   1.87183   1.87559   1.88347
  Beta virt. eigenvalues --    1.89070   1.90229   1.90576   1.91223   1.91749
  Beta virt. eigenvalues --    1.92602   1.93059   1.93406   1.93876   1.94211
  Beta virt. eigenvalues --    1.94550   1.95334   1.96151   1.96414   1.96703
  Beta virt. eigenvalues --    1.97288   1.98504   1.99386   2.01374   2.02532
  Beta virt. eigenvalues --    2.02712   2.03469   2.04480   2.04970   2.05274
  Beta virt. eigenvalues --    2.05742   2.06924   2.07638   2.08479   2.08685
  Beta virt. eigenvalues --    2.09282   2.09884   2.10092   2.10987   2.11601
  Beta virt. eigenvalues --    2.11853   2.12941   2.13339   2.13998   2.14851
  Beta virt. eigenvalues --    2.15127   2.15502   2.16352   2.17176   2.17286
  Beta virt. eigenvalues --    2.18214   2.19192   2.20179   2.20521   2.22051
  Beta virt. eigenvalues --    2.23808   2.24207   2.25055   2.26271   2.28173
  Beta virt. eigenvalues --    2.30008   2.30523   2.30650   2.31852   2.32197
  Beta virt. eigenvalues --    2.32648   2.32965   2.35007   2.36464   2.37207
  Beta virt. eigenvalues --    2.37718   2.38404   2.39769   2.40038   2.41023
  Beta virt. eigenvalues --    2.41457   2.41724   2.42071   2.42610   2.43540
  Beta virt. eigenvalues --    2.44975   2.45627   2.45808   2.46090   2.46758
  Beta virt. eigenvalues --    2.47546   2.49011   2.49283   2.49709   2.50263
  Beta virt. eigenvalues --    2.51426   2.51839   2.52947   2.53435   2.53869
  Beta virt. eigenvalues --    2.54227   2.54978   2.56550   2.56937   2.57574
  Beta virt. eigenvalues --    2.57752   2.58960   2.59589   2.60396   2.60796
  Beta virt. eigenvalues --    2.60990   2.61927   2.62976   2.63227   2.63745
  Beta virt. eigenvalues --    2.64539   2.65403   2.66416   2.66811   2.67211
  Beta virt. eigenvalues --    2.68247   2.68744   2.68988   2.69984   2.70636
  Beta virt. eigenvalues --    2.71453   2.71542   2.73181   2.73288   2.73865
  Beta virt. eigenvalues --    2.74565   2.75244   2.75521   2.76372   2.77827
  Beta virt. eigenvalues --    2.77932   2.78307   2.79291   2.80446   2.81311
  Beta virt. eigenvalues --    2.81857   2.82557   2.83184   2.83836   2.84643
  Beta virt. eigenvalues --    2.84945   2.85323   2.85643   2.86037   2.86623
  Beta virt. eigenvalues --    2.86905   2.87475   2.87629   2.88444   2.88974
  Beta virt. eigenvalues --    2.89782   2.89950   2.90324   2.90724   2.92017
  Beta virt. eigenvalues --    2.92706   2.93854   2.94723   2.95167   2.95468
  Beta virt. eigenvalues --    2.96456   2.97204   2.97324   2.98002   2.98457
  Beta virt. eigenvalues --    2.99099   2.99774   3.00482   3.01297   3.02337
  Beta virt. eigenvalues --    3.03080   3.04343   3.05890   3.06204   3.06973
  Beta virt. eigenvalues --    3.07874   3.09615   3.10520   3.11110   3.12220
  Beta virt. eigenvalues --    3.13673   3.14259   3.15423   3.16765   3.18279
  Beta virt. eigenvalues --    3.18554   3.20261   3.21896   3.22446   3.22762
  Beta virt. eigenvalues --    3.26905   3.28631   3.29274   3.33732   3.34114
  Beta virt. eigenvalues --    3.34658   3.35479   3.35987   3.37686   3.40844
  Beta virt. eigenvalues --    3.43672   3.44431   3.47342   3.50505   3.52805
  Beta virt. eigenvalues --    3.53449   3.54644   3.55205   3.56389   3.57248
  Beta virt. eigenvalues --    3.57637   3.58636   3.59987   3.60205   3.60587
  Beta virt. eigenvalues --    3.64159   3.65727   3.70590   3.76311   3.76941
  Beta virt. eigenvalues --    3.78631   3.79472   3.79996   3.81873   3.83210
  Beta virt. eigenvalues --    3.84571   3.85394   3.85887   3.86714   3.89109
  Beta virt. eigenvalues --    3.90788   3.91208   3.91636   3.95018   3.96118
  Beta virt. eigenvalues --    3.96549   3.96952   3.99111   4.04050   4.04697
  Beta virt. eigenvalues --    4.06494   4.09667   4.12012   4.13306   4.15041
  Beta virt. eigenvalues --    4.15170   4.15852   4.16714   4.21584   4.22053
  Beta virt. eigenvalues --    4.23095   4.29916   4.33243   4.36275   4.39098
  Beta virt. eigenvalues --    4.58706   4.59463   4.60970   4.70959   4.72349
  Beta virt. eigenvalues --    4.74581   4.83468   4.85216   4.93580   4.99282
  Beta virt. eigenvalues --    5.05208   5.10482   5.20318   5.37123   5.50259
  Beta virt. eigenvalues --    6.25403   6.27082   6.41183   6.65469   6.83093
  Beta virt. eigenvalues --    8.48812   8.53598   8.59605  23.58577  23.72460
  Beta virt. eigenvalues --   23.72871  23.75680  23.76555  23.77907  23.79298
  Beta virt. eigenvalues --   23.79885  23.80153  23.80423  23.82799  23.84275
  Beta virt. eigenvalues --   23.85560  23.86396  23.86798  23.89454  23.90088
  Beta virt. eigenvalues --   23.90794  23.91684  23.93318  23.94911  24.00211
  Beta virt. eigenvalues --   24.02751  24.04202  24.05746  24.08074  28.18490
  Beta virt. eigenvalues --   34.03064  34.05382  34.10379  35.51843  35.57779
  Beta virt. eigenvalues --   35.58976  35.61896  35.63180  35.64869  49.89817
  Beta virt. eigenvalues --  153.73007 804.78728
          Condensed to atoms (all electrons):
          Atomic-Atomic Spin Densities.
 Mulliken charges and spin densities:
               1          2
     1  O   -0.354985  -0.002551
     2  H    0.281029   0.006180
     3  H    0.298436   0.008132
     4  Co  -3.378499   0.963774
     5  N    0.559474   0.011693
     6  C    0.595178  -0.030249
     7  C   -0.926420  -0.001058
     8  C   -0.602518   0.000917
     9  C    0.132667  -0.028696
    10  C   -0.077749   0.009687
    11  C    0.256258  -0.017970
    12  N    0.850618   0.001577
    13  C    0.329579  -0.005857
    14  C   -0.791642   0.002322
    15  C   -0.874067   0.001783
    16  C    0.260248  -0.012188
    17  N    0.742747   0.010218
    18  C    0.282077  -0.012367
    19  C   -0.865151   0.001072
    20  C   -0.945388  -0.000534
    21  C   -0.050425   0.010400
    22  C    0.171662  -0.014323
    23  N    0.647769   0.013519
    24  C    0.272601  -0.017334
    25  C   -0.796721   0.000831
    26  C   -0.486008   0.002756
    27  C   -0.178432   0.011701
    28  C    0.298184   0.004304
    29  C   -0.153131  -0.000210
    30  N    0.399311   0.088665
    31  C   -0.248225   0.003585
    32  N   -0.108377   0.001179
    33  C   -0.680996  -0.003312
    34  C   -0.187868  -0.002110
    35  C   -0.153356   0.001124
    36  C   -0.622858   0.001161
    37  H    0.388413  -0.000946
    38  H    0.360081  -0.000086
    39  H    0.277021  -0.000860
    40  H    0.274445  -0.000803
    41  H    0.264651  -0.000681
    42  H    0.205513  -0.000088
    43  H    0.252499   0.000203
    44  H    0.267118  -0.001231
    45  H    0.236393  -0.000480
    46  H    0.274723  -0.001011
    47  H    0.252263  -0.000792
    48  H    0.241697  -0.000634
    49  H    0.220935  -0.000142
    50  H    0.260428  -0.000018
    51  H    0.254791  -0.001014
    52  H    0.238235  -0.000023
    53  H    0.246801   0.000120
    54  H    0.271666  -0.000938
    55  H    0.273046  -0.001497
    56  H    0.242375  -0.000228
    57  H    0.245018  -0.000888
    58  H    0.303098   0.000963
    59  H    0.393444   0.001860
    60  H    0.153730   0.000873
    61  H    0.250093  -0.000054
    62  H    0.240682   0.000016
    63  H    0.215820   0.000560
 Sum of Mulliken charges =   1.00000   1.00000
 Mulliken charges and spin densities with hydrogens summed into heavy atoms:
               1          2
     1  O    0.224480   0.011761
     4  Co  -3.378499   0.963774
     5  N    0.559474   0.011693
     6  C    0.595178  -0.030249
     7  C   -0.412379  -0.002224
     8  C   -0.090381  -0.001203
     9  C    0.132667  -0.028696
    10  C    0.186902   0.009005
    11  C    0.256258  -0.017970
    12  N    0.850618   0.001577
    13  C    0.717992  -0.006803
    14  C   -0.310279   0.002162
    15  C   -0.381042   0.000746
    16  C    0.620329  -0.012274
    17  N    0.742747   0.010218
    18  C    0.282077  -0.012367
    19  C   -0.376495  -0.000201
    20  C   -0.487376  -0.000419
    21  C    0.226596   0.009540
    22  C    0.171662  -0.014323
    23  N    0.647769   0.013519
    24  C    0.272601  -0.017334
    25  C   -0.275197  -0.000060
    26  C    0.028735   0.000626
    27  C    0.096013   0.010898
    28  C    0.298184   0.004304
    29  C   -0.153131  -0.000210
    30  N    0.399311   0.088665
    31  C    0.054873   0.004548
    32  N    0.285067   0.003040
    33  C   -0.527265  -0.002439
    34  C    0.062225  -0.002163
    35  C    0.087326   0.001139
    36  C   -0.407038   0.001722
 Electronic spatial extent (au):  <R**2>=          11753.3594
 Charge=              1.0000 electrons
 Dipole moment (field-independent basis, Debye):
    X=              1.5639    Y=             -1.0454    Z=              0.5581  Tot=              1.9622
 Quadrupole moment (field-independent basis, Debye-Ang):
   XX=           -162.8002   YY=           -163.5480   ZZ=           -150.4333
   XY=             -3.8232   XZ=              7.1009   YZ=             -0.9026
 Traceless Quadrupole moment (field-independent basis, Debye-Ang):
   XX=             -3.8731   YY=             -4.6208   ZZ=              8.4939
   XY=             -3.8232   XZ=              7.1009   YZ=             -0.9026
 Octapole moment (field-independent basis, Debye-Ang**2):
  XXX=             31.6793  YYY=              5.1124  ZZZ=             30.3362  XYY=             53.1968
  XXY=            -10.4052  XXZ=             16.9340  XZZ=            -27.9577  YZZ=            -36.7107
  YYZ=            -36.5795  XYZ=              7.5256
 Hexadecapole moment (field-independent basis, Debye-Ang**3):
 XXXX=          -5553.1520 YYYY=          -4623.1454 ZZZZ=          -3626.3510 XXXY=            -25.5488
 XXXZ=            -49.4779 YYYX=            -75.8102 YYYZ=              6.7947 ZZZX=           -120.4333
 ZZZY=            -90.2467 XXYY=          -1752.6339 XXZZ=          -1526.1187 YYZZ=          -1522.6645
 XXYZ=             12.2313 YYXZ=            110.7224 ZZXY=             39.8542
 N-N= 4.595339646121D+03 E-N=-1.574762312402D+04  KE= 2.788408272786D+03
                          Isotropic Fermi Contact Couplings
        Atom                 a.u.       MegaHertz       Gauss      10(-4) cm-1
     1  O(17)              0.06634     -40.21435     -14.34948     -13.41406
     2  H(1)               0.00003       0.11613       0.04144       0.03874
     3  H(1)              -0.00020      -0.88072      -0.31426      -0.29378
     4  Co(59)             0.09280      98.17799      35.03235      32.74865
     5  N(14)             -0.00389      -1.25847      -0.44905      -0.41978
     6  C(13)             -0.00170      -1.91511      -0.68336      -0.63881
     7  C(13)              0.00023       0.25828       0.09216       0.08615
     8  C(13)              0.00058       0.65296       0.23299       0.21780
     9  C(13)             -0.00275      -3.09349      -1.10383      -1.03188
    10  C(13)              0.00190       2.13451       0.76165       0.71200
    11  C(13)             -0.00136      -1.52816      -0.54528      -0.50974
    12  N(14)             -0.00224      -0.72501      -0.25870      -0.24184
    13  C(13)              0.00006       0.06325       0.02257       0.02110
    14  C(13)             -0.00006      -0.07253      -0.02588      -0.02419
    15  C(13)              0.00014       0.15255       0.05443       0.05088
    16  C(13)             -0.00013      -0.14868      -0.05305      -0.04960
    17  N(14)             -0.00393      -1.27070      -0.45342      -0.42386
    18  C(13)             -0.00104      -1.16662      -0.41628      -0.38914
    19  C(13)              0.00016       0.18040       0.06437       0.06017
    20  C(13)              0.00016       0.17570       0.06269       0.05861
    21  C(13)              0.00193       2.16430       0.77228       0.72193
    22  C(13)             -0.00270      -3.03249      -1.08207      -1.01153
    23  N(14)             -0.00195      -0.63046      -0.22496      -0.21030
    24  C(13)             -0.00134      -1.50697      -0.53772      -0.50267
    25  C(13)              0.00042       0.47012       0.16775       0.15682
    26  C(13)              0.00055       0.61326       0.21883       0.20456
    27  C(13)              0.00155       1.74077       0.62115       0.58066
    28  C(13)              0.00416       4.67272       1.66734       1.55865
    29  C(13)              0.00402       4.51683       1.61172       1.50665
    30  N(14)              0.15774      50.96739      18.18643      17.00089
    31  C(13)              0.00380       4.27485       1.52537       1.42594
    32  N(14)              0.00877       2.83414       1.01129       0.94537
    33  C(13)              0.00025       0.28076       0.10018       0.09365
    34  C(13)             -0.00013      -0.14254      -0.05086      -0.04755
    35  C(13)              0.00010       0.11627       0.04149       0.03878
    36  C(13)              0.00054       0.60284       0.21511       0.20108
    37  H(1)               0.00015       0.67809       0.24196       0.22619
    38  H(1)               0.00025       1.09850       0.39197       0.36642
    39  H(1)              -0.00009      -0.42337      -0.15107      -0.14122
    40  H(1)              -0.00009      -0.38233      -0.13643      -0.12753
    41  H(1)              -0.00011      -0.48945      -0.17465      -0.16326
    42  H(1)              -0.00001      -0.03849      -0.01373      -0.01284
    43  H(1)              -0.00001      -0.02408      -0.00859      -0.00803
    44  H(1)              -0.00060      -2.66291      -0.95019      -0.88825
    45  H(1)              -0.00026      -1.15555      -0.41233      -0.38545
    46  H(1)              -0.00038      -1.69144      -0.60355      -0.56420
    47  H(1)              -0.00038      -1.69146      -0.60355      -0.56421
    48  H(1)              -0.00035      -1.58531      -0.56568      -0.52880
    49  H(1)               0.00001       0.05311       0.01895       0.01772
    50  H(1)              -0.00004      -0.17346      -0.06190      -0.05786
    51  H(1)              -0.00047      -2.08785      -0.74500      -0.69643
    52  H(1)              -0.00009      -0.42233      -0.15070      -0.14087
    53  H(1)              -0.00010      -0.46785      -0.16694      -0.15606
    54  H(1)              -0.00037      -1.66363      -0.59362      -0.55493
    55  H(1)              -0.00066      -2.93530      -1.04739      -0.97911
    56  H(1)              -0.00020      -0.89526      -0.31945      -0.29863
    57  H(1)              -0.00045      -2.02728      -0.72339      -0.67623
    58  H(1)               0.00029       1.29825       0.46325       0.43305
    59  H(1)               0.00056       2.50725       0.89465       0.83633
    60  H(1)               0.00018       0.79936       0.28523       0.26664
    61  H(1)               0.00000      -0.00371      -0.00133      -0.00124
    62  H(1)              -0.00001      -0.04533      -0.01618      -0.01512
    63  H(1)               0.00029       1.30581       0.46595       0.43557
 --------------------------------------------------------
       Center         ----  Spin Dipole Couplings  ----
                      3XX-RR        3YY-RR        3ZZ-RR
 --------------------------------------------------------
     1   Atom       -0.009925     -0.041925      0.051850
     2   Atom        0.001788     -0.004827      0.003039
     3   Atom       -0.005429     -0.009462      0.014891
     4   Atom       -0.073212     -1.415158      1.488370
     5   Atom        0.007134     -0.000959     -0.006175
     6   Atom        0.003180      0.006392     -0.009572
     7   Atom        0.000586      0.000347     -0.000934
     8   Atom       -0.001129      0.002598     -0.001469
     9   Atom       -0.003094      0.021961     -0.018867
    10   Atom        0.005492     -0.009504      0.004013
    11   Atom        0.002333      0.004233     -0.006566
    12   Atom        0.011473     -0.013249      0.001776
    13   Atom       -0.002328      0.006561     -0.004234
    14   Atom       -0.000715      0.001630     -0.000915
    15   Atom        0.001062     -0.000988     -0.000074
    16   Atom       -0.004619      0.009603     -0.004984
    17   Atom       -0.000290     -0.001581      0.001872
    18   Atom       -0.001701      0.008400     -0.006699
    19   Atom       -0.000094      0.000815     -0.000721
    20   Atom       -0.001604      0.003444     -0.001840
    21   Atom       -0.004385      0.003311      0.001074
    22   Atom       -0.004881      0.017309     -0.012428
    23   Atom       -0.004737     -0.011360      0.016097
    24   Atom       -0.000185      0.001983     -0.001798
    25   Atom        0.000567     -0.001298      0.000731
    26   Atom       -0.000509      0.001002     -0.000493
    27   Atom        0.004401     -0.007320      0.002919
    28   Atom       -0.002210     -0.004263      0.006473
    29   Atom        0.014406     -0.011867     -0.002539
    30   Atom       -0.041245     -0.072943      0.114188
    31   Atom        0.002095     -0.017402      0.015307
    32   Atom        0.001532     -0.009864      0.008332
    33   Atom        0.004912     -0.002636     -0.002276
    34   Atom        0.002450     -0.002152     -0.000299
    35   Atom        0.000882     -0.000524     -0.000358
    36   Atom        0.001546     -0.002155      0.000609
    37   Atom       -0.001504      0.005600     -0.004096
    38   Atom       -0.003418      0.005834     -0.002416
    39   Atom       -0.001954      0.003401     -0.001447
    40   Atom        0.001130     -0.001726      0.000596
    41   Atom        0.002272     -0.002281      0.000009
    42   Atom       -0.001696      0.002976     -0.001280
    43   Atom       -0.000946      0.002092     -0.001146
    44   Atom       -0.000954      0.001855     -0.000902
    45   Atom       -0.000323      0.000835     -0.000512
    46   Atom       -0.000148     -0.000939      0.001087
    47   Atom        0.000232      0.000849     -0.001081
    48   Atom       -0.000461      0.000504     -0.000043
    49   Atom       -0.001271      0.001227      0.000044
    50   Atom       -0.000438      0.001206     -0.000768
    51   Atom        0.001273     -0.000403     -0.000871
    52   Atom        0.000486     -0.000506      0.000021
    53   Atom        0.000724     -0.000856      0.000132
    54   Atom        0.000670      0.000281     -0.000951
    55   Atom        0.000172      0.000499     -0.000671
    56   Atom        0.000138      0.000288     -0.000426
    57   Atom       -0.000534      0.001539     -0.001005
    58   Atom       -0.003311     -0.004590      0.007901
    59   Atom       -0.000826     -0.001368      0.002194
    60   Atom        0.006767     -0.003705     -0.003062
    61   Atom        0.001450     -0.000795     -0.000656
    62   Atom        0.000651     -0.000482     -0.000169
    63   Atom        0.000161     -0.000659      0.000497
 --------------------------------------------------------
                        XY            XZ            YZ
 --------------------------------------------------------
     1   Atom        0.046307     -0.090515     -0.062693
     2   Atom       -0.004845     -0.011413      0.002476
     3   Atom        0.000388     -0.000141     -0.005092
     4   Atom        0.314971     -1.777743     -0.396706
     5   Atom       -0.017687     -0.011626      0.002872
     6   Atom       -0.007016      0.014980     -0.000979
     7   Atom       -0.002054      0.000934     -0.000994
     8   Atom       -0.001326      0.000103     -0.000349
     9   Atom       -0.003514      0.018489     -0.000663
    10   Atom       -0.000785     -0.002042     -0.001704
    11   Atom        0.002837      0.018589      0.002102
    12   Atom        0.012757     -0.001753      0.003356
    13   Atom        0.005687      0.001167      0.004081
    14   Atom        0.002268      0.000837      0.001910
    15   Atom        0.001277      0.001660      0.000931
    16   Atom       -0.003868     -0.001347      0.000780
    17   Atom       -0.003269     -0.008548     -0.016735
    18   Atom       -0.008871      0.016770     -0.000921
    19   Atom       -0.001887      0.000833     -0.001234
    20   Atom       -0.001119     -0.000267     -0.000562
    21   Atom        0.001489     -0.007228      0.002733
    22   Atom        0.003858      0.021970      0.006199
    23   Atom        0.007053      0.001294      0.012657
    24   Atom       -0.000073      0.017809      0.002506
    25   Atom        0.001057      0.002161      0.001204
    26   Atom        0.001621      0.001022      0.001679
    27   Atom       -0.001621     -0.000362     -0.003651
    28   Atom        0.000658     -0.004429     -0.001738
    29   Atom       -0.000189     -0.010371     -0.001010
    30   Atom        0.019448     -0.115751     -0.027352
    31   Atom       -0.001945      0.004212     -0.006342
    32   Atom       -0.000276     -0.004952     -0.002759
    33   Atom       -0.000256     -0.001379     -0.000004
    34   Atom       -0.000151     -0.000927     -0.000325
    35   Atom        0.000072     -0.000891      0.000027
    36   Atom        0.000076     -0.002192     -0.000328
    37   Atom        0.005395     -0.000638     -0.000815
    38   Atom       -0.002831     -0.001529      0.004265
    39   Atom        0.000711     -0.000415      0.001119
    40   Atom       -0.001162      0.002224     -0.001190
    41   Atom       -0.000577      0.002237     -0.000448
    42   Atom       -0.000265     -0.000025     -0.001141
    43   Atom       -0.000780     -0.000082      0.000013
    44   Atom       -0.000850      0.000207     -0.000809
    45   Atom       -0.001194      0.000629     -0.001123
    46   Atom        0.000632      0.001534      0.000962
    47   Atom       -0.001800      0.000483     -0.000578
    48   Atom        0.000956      0.000642      0.001156
    49   Atom        0.001265      0.000845      0.002218
    50   Atom        0.001337      0.000422      0.000908
    51   Atom        0.001527      0.001076      0.000574
    52   Atom        0.000943      0.001268      0.000822
    53   Atom        0.000713      0.001342      0.000524
    54   Atom       -0.001684      0.000483     -0.000448
    55   Atom        0.001522      0.000805      0.000932
    56   Atom       -0.001272      0.000794     -0.000987
    57   Atom       -0.001045     -0.000044     -0.000126
    58   Atom       -0.000696      0.003335     -0.002822
    59   Atom        0.000073     -0.000675     -0.000657
    60   Atom       -0.000754      0.000176     -0.000197
    61   Atom       -0.000080     -0.000387     -0.000003
    62   Atom        0.000031     -0.000584     -0.000019
    63   Atom        0.000102     -0.000859     -0.000169
 --------------------------------------------------------


 ---------------------------------------------------------------------------------
              Anisotropic Spin Dipole Couplings in Principal Axis System
 ---------------------------------------------------------------------------------

       Atom             a.u.   MegaHertz   Gauss  10(-4) cm-1        Axes

              Baa    -0.0754     5.458     1.948     1.821  0.7952 -0.5222  0.3083
     1 O(17)  Bbb    -0.0731     5.287     1.887     1.764  0.2757  0.7641  0.5832
              Bcc     0.1485   -10.745    -3.834    -3.584 -0.5401 -0.3788  0.7515
 
              Baa    -0.0099    -5.260    -1.877    -1.754  0.7185  0.4186  0.5554
     2 H(1)   Bbb    -0.0053    -2.833    -1.011    -0.945 -0.1500  0.8731 -0.4639
              Bcc     0.0152     8.093     2.888     2.700 -0.6792  0.2500  0.6901
 
              Baa    -0.0105    -5.607    -2.001    -1.870 -0.0694  0.9782  0.1957
     3 H(1)   Bbb    -0.0054    -2.885    -1.029    -0.962  0.9975  0.0661  0.0235
              Bcc     0.0159     8.491     3.030     2.832 -0.0100 -0.1969  0.9804
 
              Baa    -1.4854  -187.576   -66.932   -62.569 -0.2174  0.9761  0.0003
     4 Co(59) Bbb    -1.2255  -154.753   -55.220   -51.620  0.8105  0.1803  0.5573
              Bcc     2.7109   342.329   122.152   114.189 -0.5439 -0.1214  0.8303
 
              Baa    -0.0179    -0.691    -0.247    -0.231  0.6427  0.5867  0.4926
     5 N(14)  Bbb    -0.0072    -0.277    -0.099    -0.092 -0.0769 -0.5903  0.8035
              Bcc     0.0251     0.968     0.345     0.323  0.7622 -0.5543 -0.3343
 
              Baa    -0.0198    -2.664    -0.950    -0.888 -0.5669 -0.1212  0.8148
     6 C(13)  Bbb     0.0028     0.379     0.135     0.127  0.3746  0.8430  0.3860
              Bcc     0.0170     2.284     0.815     0.762  0.7337 -0.5240  0.4326
 
              Baa    -0.0016    -0.217    -0.077    -0.072  0.5671  0.7568  0.3250
     7 C(13)  Bbb    -0.0014    -0.185    -0.066    -0.062 -0.4600 -0.0363  0.8872
              Bcc     0.0030     0.402     0.143     0.134  0.6832 -0.6527  0.3275
 
              Baa    -0.0016    -0.209    -0.074    -0.070  0.9387  0.3121  0.1464
     8 C(13)  Bbb    -0.0015    -0.201    -0.072    -0.067 -0.1641  0.0309  0.9860
              Bcc     0.0031     0.409     0.146     0.137 -0.3032  0.9496 -0.0802
 
              Baa    -0.0311    -4.176    -1.490    -1.393 -0.5528 -0.0262  0.8329
     9 C(13)  Bbb     0.0083     1.117     0.399     0.373  0.8066  0.2342  0.5427
              Bcc     0.0228     3.058     1.091     1.020 -0.2093  0.9718 -0.1084
 
              Baa    -0.0098    -1.313    -0.469    -0.438  0.0685  0.9889  0.1322
    10 C(13)  Bbb     0.0029     0.383     0.137     0.128  0.5779 -0.1474  0.8027
              Bcc     0.0069     0.930     0.332     0.310  0.8133  0.0215 -0.5815
 
              Baa    -0.0212    -2.849    -1.017    -0.950 -0.6197  0.0042  0.7849
    11 C(13)  Bbb     0.0033     0.446     0.159     0.149 -0.1936  0.9683 -0.1581
              Bcc     0.0179     2.403     0.857     0.802  0.7606  0.2499  0.5992
 
              Baa    -0.0193    -0.745    -0.266    -0.249 -0.3852  0.9059 -0.1761
    12 N(14)  Bbb     0.0024     0.094     0.034     0.031 -0.0494  0.1703  0.9842
              Bcc     0.0169     0.651     0.232     0.217  0.9215  0.3878 -0.0208
 
              Baa    -0.0060    -0.804    -0.287    -0.268  0.4728 -0.4588  0.7523
    13 C(13)  Bbb    -0.0045    -0.608    -0.217    -0.203  0.7800 -0.1793 -0.5995
              Bcc     0.0105     1.412     0.504     0.471  0.4100  0.8702  0.2731
 
              Baa    -0.0022    -0.301    -0.108    -0.101  0.6441 -0.6066  0.4660
    14 C(13)  Bbb    -0.0017    -0.222    -0.079    -0.074 -0.6098 -0.0394  0.7916
              Bcc     0.0039     0.523     0.187     0.175  0.4619  0.7940  0.3953
 
              Baa    -0.0016    -0.219    -0.078    -0.073 -0.2851  0.9255 -0.2493
    15 C(13)  Bbb    -0.0013    -0.169    -0.060    -0.056 -0.5935  0.0337  0.8041
              Bcc     0.0029     0.388     0.138     0.129  0.7526  0.3772  0.5397
 
              Baa    -0.0065    -0.869    -0.310    -0.290  0.7721  0.1559  0.6160
    16 C(13)  Bbb    -0.0042    -0.562    -0.201    -0.187 -0.5840 -0.2082  0.7846
              Bcc     0.0107     1.431     0.511     0.477 -0.2506  0.9656  0.0697
 
              Baa    -0.0201    -0.776    -0.277    -0.259  0.3878  0.6545  0.6490
    17 N(14)  Bbb     0.0021     0.081     0.029     0.027  0.8885 -0.4529 -0.0742
              Bcc     0.0180     0.695     0.248     0.232 -0.2453 -0.6054  0.7571
 
              Baa    -0.0221    -2.959    -1.056    -0.987 -0.6702 -0.1734  0.7216
    18 C(13)  Bbb     0.0036     0.483     0.172     0.161  0.3633  0.7712  0.5227
              Bcc     0.0185     2.477     0.884     0.826  0.6472 -0.6125  0.4539
 
              Baa    -0.0016    -0.217    -0.077    -0.072  0.6680  0.6761  0.3109
    19 C(13)  Bbb    -0.0013    -0.174    -0.062    -0.058 -0.4839  0.0773  0.8717
              Bcc     0.0029     0.390     0.139     0.130 -0.5654  0.7327 -0.3788
 
              Baa    -0.0022    -0.300    -0.107    -0.100  0.6594  0.2015  0.7243
    20 C(13)  Bbb    -0.0015    -0.199    -0.071    -0.067  0.7245  0.0865 -0.6838
              Bcc     0.0037     0.500     0.178     0.167 -0.2004  0.9757 -0.0889
 
              Baa    -0.0100    -1.338    -0.477    -0.446  0.7944 -0.2066  0.5711
    21 C(13)  Bbb     0.0032     0.434     0.155     0.145  0.4063  0.8797 -0.2470
              Bcc     0.0067     0.904     0.323     0.302 -0.4514  0.4283  0.7828
 
              Baa    -0.0311    -4.167    -1.487    -1.390 -0.6381 -0.0476  0.7685
    22 C(13)  Bbb     0.0083     1.119     0.399     0.373  0.6299 -0.6063  0.4854
              Bcc     0.0227     3.048     1.088     1.017  0.4428  0.7938  0.4169
 
              Baa    -0.0190    -0.732    -0.261    -0.244 -0.4017  0.8660 -0.2977
    23 N(14)  Bbb    -0.0026    -0.101    -0.036    -0.034  0.9039  0.3228 -0.2808
              Bcc     0.0216     0.833     0.297     0.278  0.1471  0.3818  0.9125
 
              Baa    -0.0190    -2.548    -0.909    -0.850 -0.6852 -0.0888  0.7229
    24 C(13)  Bbb     0.0020     0.263     0.094     0.088 -0.1420  0.9898 -0.0131
              Bcc     0.0170     2.284     0.815     0.762  0.7144  0.1116  0.6908
 
              Baa    -0.0019    -0.250    -0.089    -0.083 -0.0782  0.9275 -0.3655
    25 C(13)  Bbb    -0.0015    -0.201    -0.072    -0.067  0.7538 -0.1849 -0.6305
              Bcc     0.0034     0.451     0.161     0.150  0.6524  0.3249  0.6847
 
              Baa    -0.0016    -0.214    -0.076    -0.071  0.2879 -0.6408  0.7117
    26 C(13)  Bbb    -0.0015    -0.204    -0.073    -0.068  0.8354 -0.1953 -0.5137
              Bcc     0.0031     0.417     0.149     0.139  0.4682  0.7424  0.4792
 
              Baa    -0.0087    -1.167    -0.416    -0.389  0.1254  0.9453  0.3010
    27 C(13)  Bbb     0.0040     0.543     0.194     0.181 -0.2524 -0.2630  0.9312
              Bcc     0.0046     0.624     0.223     0.208  0.9595 -0.1927  0.2057
 
              Baa    -0.0045    -0.609    -0.217    -0.203  0.0739  0.9801  0.1844
    28 C(13)  Bbb    -0.0041    -0.545    -0.194    -0.182  0.9210 -0.1380  0.3644
              Bcc     0.0086     1.154     0.412     0.385 -0.3826 -0.1429  0.9128
 
              Baa    -0.0121    -1.621    -0.579    -0.541  0.0827  0.9776  0.1933
    29 C(13)  Bbb    -0.0072    -0.972    -0.347    -0.324  0.4209 -0.2101  0.8825
              Bcc     0.0193     2.594     0.925     0.865  0.9033  0.0084 -0.4288
 
              Baa    -0.1036    -3.997    -1.426    -1.333  0.8800 -0.1586  0.4477
    30 N(14)  Bbb    -0.0766    -2.955    -1.055    -0.986  0.0802  0.9787  0.1890
              Bcc     0.1803     6.953     2.481     2.319 -0.4681 -0.1304  0.8740
 
              Baa    -0.0187    -2.503    -0.893    -0.835  0.0563  0.9827  0.1765
    31 C(13)  Bbb     0.0009     0.116     0.042     0.039  0.9595 -0.0043 -0.2818
              Bcc     0.0178     2.387     0.852     0.796  0.2761 -0.1852  0.9431
 
              Baa    -0.0104    -0.400    -0.143    -0.133  0.0933  0.9811  0.1695
    32 N(14)  Bbb    -0.0008    -0.032    -0.011    -0.011  0.8877 -0.1591  0.4320
              Bcc     0.0112     0.432     0.154     0.144 -0.4508 -0.1101  0.8858
 
              Baa    -0.0027    -0.357    -0.128    -0.119  0.0946  0.9333  0.3463
    33 C(13)  Bbb    -0.0025    -0.337    -0.120    -0.112  0.1586 -0.3576  0.9203
              Bcc     0.0052     0.695     0.248     0.232  0.9828 -0.0322 -0.1819
 
              Baa    -0.0022    -0.299    -0.107    -0.100  0.0709  0.9775  0.1987
    34 C(13)  Bbb    -0.0005    -0.068    -0.024    -0.023  0.2826 -0.2107  0.9358
              Bcc     0.0027     0.367     0.131     0.122  0.9566 -0.0102 -0.2912
 
              Baa    -0.0008    -0.112    -0.040    -0.037  0.4592 -0.1820  0.8695
    35 C(13)  Bbb    -0.0005    -0.069    -0.025    -0.023  0.0601  0.9829  0.1740
              Bcc     0.0013     0.181     0.065     0.060  0.8863  0.0276 -0.4623
 
              Baa    -0.0022    -0.296    -0.106    -0.099  0.0858  0.9798  0.1808
    36 C(13)  Bbb    -0.0011    -0.151    -0.054    -0.050  0.6259 -0.1942  0.7553
              Bcc     0.0033     0.447     0.160     0.149  0.7752  0.0483 -0.6299
 
              Baa    -0.0045    -2.403    -0.858    -0.802  0.7943 -0.3863  0.4689
    37 H(1)   Bbb    -0.0041    -2.180    -0.778    -0.727 -0.3802  0.2858  0.8796
              Bcc     0.0086     4.583     1.635     1.529  0.4738  0.8770 -0.0802
 
              Baa    -0.0045    -2.425    -0.865    -0.809  0.7143 -0.0904  0.6940
    38 H(1)   Bbb    -0.0040    -2.112    -0.754    -0.704  0.6500  0.4535 -0.6098
              Bcc     0.0085     4.537     1.619     1.513 -0.2596  0.8867  0.3827
 
              Baa    -0.0024    -1.299    -0.463    -0.433  0.7964 -0.2060  0.5686
    39 H(1)   Bbb    -0.0013    -0.682    -0.243    -0.227 -0.5951 -0.1003  0.7973
              Bcc     0.0037     1.981     0.707     0.661  0.1072  0.9734  0.2025
 
              Baa    -0.0023    -1.204    -0.429    -0.401  0.1343  0.9474  0.2905
    40 H(1)   Bbb    -0.0014    -0.727    -0.259    -0.243 -0.6916 -0.1203  0.7122
              Bcc     0.0036     1.931     0.689     0.644  0.7097 -0.2966  0.6391
 
              Baa    -0.0024    -1.267    -0.452    -0.423  0.0609  0.9898  0.1287
    41 H(1)   Bbb    -0.0014    -0.726    -0.259    -0.242 -0.5316 -0.0770  0.8435
              Bcc     0.0037     1.993     0.711     0.665  0.8448 -0.1198  0.5215
 
              Baa    -0.0018    -0.935    -0.333    -0.312  0.9003  0.1492  0.4088
    42 H(1)   Bbb    -0.0015    -0.813    -0.290    -0.271 -0.4322  0.1976  0.8798
              Bcc     0.0033     1.747     0.624     0.583 -0.0505  0.9689 -0.2424
 
              Baa    -0.0012    -0.649    -0.232    -0.217  0.6622  0.1533  0.7334
    43 H(1)   Bbb    -0.0011    -0.567    -0.202    -0.189  0.7114  0.1786 -0.6797
              Bcc     0.0023     1.217     0.434     0.406 -0.2352  0.9719  0.0092
 
              Baa    -0.0012    -0.637    -0.227    -0.213  0.9245  0.3146  0.2152
    44 H(1)   Bbb    -0.0011    -0.595    -0.212    -0.198 -0.2798  0.1771  0.9436
              Bcc     0.0023     1.232     0.440     0.411 -0.2587  0.9326 -0.2517
 
              Baa    -0.0012    -0.619    -0.221    -0.206  0.2698  0.5900  0.7610
    45 H(1)   Bbb    -0.0010    -0.552    -0.197    -0.184  0.8390  0.2438 -0.4865
              Bcc     0.0022     1.171     0.418     0.390 -0.4725  0.7698 -0.4292
 
              Baa    -0.0013    -0.707    -0.252    -0.236 -0.0920  0.9436 -0.3180
    46 H(1)   Bbb    -0.0012    -0.631    -0.225    -0.210  0.8431 -0.0961 -0.5290
              Bcc     0.0025     1.338     0.477     0.446  0.5298  0.3168  0.7868
 
              Baa    -0.0013    -0.686    -0.245    -0.229  0.7541  0.6535  0.0656
    47 H(1)   Bbb    -0.0012    -0.661    -0.236    -0.220 -0.1829  0.1129  0.9766
              Bcc     0.0025     1.347     0.481     0.449 -0.6308  0.7484 -0.2046
 
              Baa    -0.0011    -0.569    -0.203    -0.190  0.7267 -0.6353  0.2616
    48 H(1)   Bbb    -0.0009    -0.479    -0.171    -0.160 -0.5371 -0.2878  0.7929
              Bcc     0.0020     1.047     0.374     0.349  0.4284  0.7167  0.5503
 
              Baa    -0.0018    -0.971    -0.346    -0.324  0.8164 -0.5207  0.2496
    49 H(1)   Bbb    -0.0016    -0.855    -0.305    -0.285 -0.4886 -0.3924  0.7793
              Bcc     0.0034     1.826     0.652     0.609  0.3078  0.7582  0.5748
 
              Baa    -0.0012    -0.653    -0.233    -0.218  0.6955 -0.5536  0.4581
    50 H(1)   Bbb    -0.0011    -0.563    -0.201    -0.188 -0.5539 -0.0068  0.8326
              Bcc     0.0023     1.217     0.434     0.406  0.4578  0.8328  0.3114
 
              Baa    -0.0014    -0.722    -0.258    -0.241 -0.5652  0.5226  0.6383
    51 H(1)   Bbb    -0.0013    -0.668    -0.238    -0.223 -0.1314  0.7068 -0.6951
              Bcc     0.0026     1.390     0.496     0.464  0.8144  0.4767  0.3309
 
              Baa    -0.0011    -0.591    -0.211    -0.197 -0.0988  0.8538 -0.5111
    52 H(1)   Bbb    -0.0010    -0.548    -0.196    -0.183  0.7152 -0.2962 -0.6330
              Bcc     0.0021     1.139     0.406     0.380  0.6919  0.4281  0.5814
 
              Baa    -0.0011    -0.603    -0.215    -0.201 -0.3423  0.9392 -0.0258
    53 H(1)   Bbb    -0.0009    -0.501    -0.179    -0.167 -0.5679 -0.1849  0.8020
              Bcc     0.0021     1.104     0.394     0.368  0.7485  0.2892  0.5967
 
              Baa    -0.0012    -0.651    -0.232    -0.217  0.6490  0.7552  0.0924
    54 H(1)   Bbb    -0.0011    -0.578    -0.206    -0.193 -0.2101  0.0611  0.9758
              Bcc     0.0023     1.229     0.439     0.410  0.7312 -0.6527  0.1983
 
              Baa    -0.0012    -0.645    -0.230    -0.215 -0.5181  0.7167 -0.4668
    55 H(1)   Bbb    -0.0012    -0.618    -0.220    -0.206 -0.5919  0.0936  0.8006
              Bcc     0.0024     1.263     0.450     0.421  0.6174  0.6911  0.3757
 
              Baa    -0.0011    -0.612    -0.218    -0.204  0.3197  0.7128  0.6243
    56 H(1)   Bbb    -0.0010    -0.517    -0.184    -0.172  0.7300  0.2347 -0.6418
              Bcc     0.0021     1.129     0.403     0.377 -0.6040  0.6609 -0.4454
 
              Baa    -0.0011    -0.576    -0.206    -0.192  0.5691  0.2646  0.7785
    57 H(1)   Bbb    -0.0009    -0.479    -0.171    -0.160  0.7274  0.2795 -0.6267
              Bcc     0.0020     1.055     0.376     0.352 -0.3834  0.9230 -0.0334
 
              Baa    -0.0052    -2.774    -0.990    -0.925 -0.0216  0.9762  0.2158
    58 H(1)   Bbb    -0.0042    -2.253    -0.804    -0.751  0.9658  0.0761 -0.2479
              Bcc     0.0094     5.026     1.794     1.677  0.2585 -0.2031  0.9444
 
              Baa    -0.0015    -0.795    -0.284    -0.265  0.0865  0.9779  0.1903
    59 H(1)   Bbb    -0.0010    -0.513    -0.183    -0.171  0.9755 -0.1219  0.1833
              Bcc     0.0025     1.308     0.467     0.436 -0.2024 -0.1698  0.9645
 
              Baa    -0.0038    -2.030    -0.724    -0.677  0.0650  0.9682  0.2415
    60 H(1)   Bbb    -0.0030    -1.611    -0.575    -0.538 -0.0359 -0.2396  0.9702
              Bcc     0.0068     3.641     1.299     1.215  0.9972 -0.0718  0.0192
 
              Baa    -0.0008    -0.427    -0.153    -0.143  0.0704  0.9756  0.2078
    61 H(1)   Bbb    -0.0007    -0.385    -0.137    -0.128  0.1635 -0.2167  0.9624
              Bcc     0.0015     0.812     0.290     0.271  0.9840 -0.0338 -0.1748
 
              Baa    -0.0005    -0.258    -0.092    -0.086  0.1049  0.9614  0.2545
    62 H(1)   Bbb    -0.0005    -0.252    -0.090    -0.084  0.4497 -0.2742  0.8501
              Bcc     0.0010     0.510     0.182     0.170  0.8870  0.0252 -0.4611
 
              Baa    -0.0007    -0.365    -0.130    -0.122  0.0923  0.9741  0.2065
    63 H(1)   Bbb    -0.0005    -0.288    -0.103    -0.096  0.7704 -0.2013  0.6049
              Bcc     0.0012     0.653     0.233     0.218 -0.6308 -0.1033  0.7690
 

 ---------------------------------------------------------------------------------

 1\1\GINC-NID01399\SP\UTPSSTPSS\6-311++G(d,p)\C26H29Co1N6O1(1+,2)\PARKS
 JM\29-Oct-2015\0\\# tpsstpss/6-311++G(d,p) integral=ultrafine scf=tigh
 t\\H2O.Co.2.Corrin.Bzm\\1,2\O,0,1.881541,0.515538,-2.574708\H,0,2.4759
 07,-0.213145,-2.841515\H,0,1.226214,0.573056,-3.29775\Co,0,0.573576,0.
 02505,-0.508247\N,0,1.623338,-1.525671,-0.056476\C,0,2.778406,-1.52501
 1,0.721749\C,0,3.324955,-2.933691,0.886074\C,0,2.220287,-3.819324,0.27
 7469\C,0,1.283885,-2.811158,-0.361788\C,0,3.370248,-0.404445,1.264763\
 C,0,2.89908,0.917593,1.024596\N,0,1.819534,1.146657,0.303063\C,0,1.667
 232,2.606035,0.048984\C,0,2.441901,3.254597,1.209468\C,0,3.558134,2.21
 1688,1.476176\C,0,0.164749,2.825339,-0.121866\N,0,-0.285033,1.634419,-
 0.895456\C,0,-1.201376,1.962242,-1.784575\C,0,-1.518745,3.446976,-1.75
 3\C,0,-0.318498,4.026271,-0.961861\C,0,0.197909,-3.177058,-1.156557\C,
 0,-0.678518,-2.29652,-1.786886\N,0,-0.635577,-0.939348,-1.653075\C,0,-
 1.548918,-0.362369,-2.531199\C,0,-2.208411,-1.422342,-3.397728\C,0,-1.
 797605,-2.738685,-2.709403\C,0,-1.81675,0.986974,-2.621603\C,0,-2.1681
 97,-0.441464,3.006441\C,0,-1.958103,-0.199207,1.623622\N,0,-0.585431,-
 0.251424,1.342157\C,0,0.00009,-0.511189,2.50321\N,0,-0.894192,-0.63596
 7,3.530501\C,0,-3.058623,0.045042,0.784078\C,0,-4.329787,0.03618,1.361
 263\C,0,-4.519379,-0.208631,2.741309\C,0,-3.440236,-0.45268,3.593061\H
 ,0,2.157532,2.818893,-0.915313\H,0,-0.326615,2.792509,0.863866\H,0,0.0
 43105,-4.240754,-1.326321\H,0,-2.549124,1.319655,-3.353719\H,0,4.26880
 4,-0.53589,1.863731\H,0,0.473496,4.334563,-1.658509\H,0,-0.588866,4.89
 1733,-0.347699\H,0,1.682012,-4.394301,1.045166\H,0,-1.627448,3.875514,
 -2.757108\H,0,-1.811412,-1.368916,-4.422462\H,0,-2.471562,3.610003,-1.
 225062\H,0,-1.476811,-3.520069,-3.408285\H,0,1.7913,3.343791,2.091094\
 H,0,2.831888,4.248298,0.964024\H,0,4.451319,2.411776,0.863138\H,0,3.88
 5243,2.174163,2.522914\H,0,-3.29315,-1.279896,-3.463628\H,0,4.272327,-
 3.031687,0.337175\H,0,-2.623375,-3.153941,-2.11206\H,0,3.538719,-3.166
 468,1.93633\H,0,2.599458,-4.542481,-0.455362\H,0,1.068735,-0.616459,2.
 646562\H,0,-0.66239,-0.832641,4.498784\H,0,-2.921508,0.235025,-0.27716
 \H,0,-5.200686,0.222525,0.735222\H,0,-5.52821,-0.206602,3.149304\H,0,-
 3.584636,-0.640541,4.655191\\Version=AS64L-G09RevD.01\State=2-A\HF=-27
 95.3526823\S2=0.761866\S2-1=0.\S2A=0.750111\RMSD=6.139e-09\Dipole=0.61
 52766,-0.4113102,0.2195711\Quadrupole=-2.8795185,-3.4354617,6.3149803,
 -2.8424893,5.2793709,-0.6710835\PG=C01 [X(C26H29Co1N6O1)]\\@


       THE DEATH-KNELL OF THE ATOM

 SO THE ATOMS IN TURN, WE NOW CLEARLY DISCERN,
 FLY TO BITS WITH THE UTMOST FACILITY;
 THEY WEND ON THEIR WAY, AND, IN SPLITTING, DISPLAY
 AN ABSOLUTE LACK OF STABILITY.

          SIR WM. RAMSAY, 1905
 Job cpu time:       0 days  0 hours  1 minutes 45.8 seconds.
 File lengths (MBytes):  RWF=    895 Int=      0 D2E=      0 Chk=     46 Scr=      1
 Normal termination of Gaussian 09 at Thu Oct 29 13:03:30 2015.
