 Entering GApplication 60302237 resources: utime ~160898s, stime ~2429s, Rss ~2037928, inblocks ~79644748, outblocks ~16947896
.smd_bondi.com
 Output=/global/homes/p/parksjm/tpss/H2O.Co.2.Corrin.Bzm/H2O.Co.2.Corrin.Bzm.tpss.6311pgss.smd_bondi.log
 Initial command:
 /usr/common/usg/g09/d1/g09/l1.exe "/scratch/scratchdirs/parksjm/g09/13504655.hopque01/Gau-16368.inp" -scrdir="/scratch/scratchdirs/parksjm/g09/13504655.hopque01/"
 Entering Link 1 = /usr/common/usg/g09/d1/g09/l1.exe PID=     16369.
  
 Copyright (c) 1988,1990,1992,1993,1995,1998,2003,2009,2013,
            Gaussian, Inc.  All Rights Reserved.
  
 This is part of the Gaussian(R) 09 program.  It is based on
 the Gaussian(R) 03 system (copyright 2003, Gaussian, Inc.),
 the Gaussian(R) 98 system (copyright 1998, Gaussian, Inc.),
 the Gaussian(R) 94 system (copyright 1995, Gaussian, Inc.),
 the Gaussian 92(TM) system (copyright 1992, Gaussian, Inc.),
 the Gaussian 90(TM) system (copyright 1990, Gaussian, Inc.),
 the Gaussian 88(TM) system (copyright 1988, Gaussian, Inc.),
 the Gaussian 86(TM) system (copyright 1986, Carnegie Mellon
 University), and the Gaussian 82(TM) system (copyright 1983,
 Carnegie Mellon University). Gaussian is a federally registered
 trademark of Gaussian, Inc.
  
 This software contains proprietary and confidential information,
 including trade secrets, belonging to Gaussian, Inc.
  
 This software is provided under written license and may be
 used, copied, transmitted, or stored only in accord with that
 written license.
  
 The following legend is applicable only to US Government
 contracts under FAR:
  
                    RESTRICTED RIGHTS LEGEND
  
 Use, reproduction and disclosure by the US Government is
 subject to restrictions as set forth in subparagraphs (a)
 and (c) of the Commercial Computer Software - Restricted
 Rights clause in FAR 52.227-19.
  
 Gaussian, Inc.
 340 Quinnipiac St., Bldg. 40, Wallingford CT 06492
  
  
 ---------------------------------------------------------------
 Warning -- This program may not be used in any manner that
 competes with the business of Gaussian, Inc. or will provide
 assistance to any competitor of Gaussian, Inc.  The licensee
 of this program is prohibited from giving any competitor of
 Gaussian, Inc. access to this program.  By using this program,
 the user acknowledges that Gaussian, Inc. is engaged in the
 business of creating and licensing software in the field of
 computational chemistry and represents and warrants to the
 licensee that it is not a competitor of Gaussian, Inc. and that
 it will not use this program in any manner prohibited above.
 ---------------------------------------------------------------
  

 Cite this work as:
 Gaussian 09, Revision D.01,
 M. J. Frisch, G. W. Trucks, H. B. Schlegel, G. E. Scuseria, 
 M. A. Robb, J. R. Cheeseman, G. Scalmani, V. Barone, B. Mennucci, 
 G. A. Petersson, H. Nakatsuji, M. Caricato, X. Li, H. P. Hratchian, 
 A. F. Izmaylov, J. Bloino, G. Zheng, J. L. Sonnenberg, M. Hada, 
 M. Ehara, K. Toyota, R. Fukuda, J. Hasegawa, M. Ishida, T. Nakajima, 
 Y. Honda, O. Kitao, H. Nakai, T. Vreven, J. A. Montgomery, Jr., 
 J. E. Peralta, F. Ogliaro, M. Bearpark, J. J. Heyd, E. Brothers, 
 K. N. Kudin, V. N. Staroverov, T. Keith, R. Kobayashi, J. Normand, 
 K. Raghavachari, A. Rendell, J. C. Burant, S. S. Iyengar, J. Tomasi, 
 M. Cossi, N. Rega, J. M. Millam, M. Klene, J. E. Knox, J. B. Cross, 
 V. Bakken, C. Adamo, J. Jaramillo, R. Gomperts, R. E. Stratmann, 
 O. Yazyev, A. J. Austin, R. Cammi, C. Pomelli, J. W. Ochterski, 
 R. L. Martin, K. Morokuma, V. G. Zakrzewski, G. A. Voth, 
 P. Salvador, J. J. Dannenberg, S. Dapprich, A. D. Daniels, 
 O. Farkas, J. B. Foresman, J. V. Ortiz, J. Cioslowski, 
 and D. J. Fox, Gaussian, Inc., Wallingford CT, 2013.
 
 ******************************************
 Gaussian 09:  AS64L-G09RevD.01 24-Apr-2013
                29-Oct-2015 
 ******************************************
 %nproc=24
 Will use up to   24 processors via shared memory.
 %chk=H2O.Co.2.Corrin.Bzm.chk
 %mem=7000mb
 ----------------------------------------------------
 # tpsstpss/6-311+G(d,p) integral=ultrafine scf=tight
 ----------------------------------------------------
 1/38=1/1;
 2/12=2,17=6,18=5,40=1/2;
 3/5=4,6=6,7=111,11=2,16=1,25=1,30=1,74=2523,75=-5/1,2,3;
 4//1;
 5/5=2,32=2,38=5/2;
 6/7=2,8=2,9=2,10=2,28=1/1;
 99/5=1,9=1/99;
 -------------------
 H2O.Co.2.Corrin.Bzm
 -------------------
 Symbolic Z-matrix:
 Charge =  1 Multiplicity = 2
 O                     1.88154   0.51554  -2.57471 
 H                     2.47591  -0.21315  -2.84152 
 H                     1.22621   0.57306  -3.29775 
 Co                    0.57358   0.02505  -0.50825 
 N                     1.62334  -1.52567  -0.05648 
 C                     2.77841  -1.52501   0.72175 
 C                     3.32496  -2.93369   0.88607 
 C                     2.22029  -3.81932   0.27747 
 C                     1.28389  -2.81116  -0.36179 
 C                     3.37025  -0.40445   1.26476 
 C                     2.89908   0.91759   1.0246 
 N                     1.81953   1.14666   0.30306 
 C                     1.66723   2.60604   0.04898 
 C                     2.4419    3.2546    1.20947 
 C                     3.55813   2.21169   1.47618 
 C                     0.16475   2.82534  -0.12187 
 N                    -0.28503   1.63442  -0.89546 
 C                    -1.20138   1.96224  -1.78458 
 C                    -1.51875   3.44698  -1.753 
 C                    -0.3185    4.02627  -0.96186 
 C                     0.19791  -3.17706  -1.15656 
 C                    -0.67852  -2.29652  -1.78689 
 N                    -0.63558  -0.93935  -1.65308 
 C                    -1.54892  -0.36237  -2.5312 
 C                    -2.20841  -1.42234  -3.39773 
 C                    -1.79761  -2.73869  -2.7094 
 C                    -1.81675   0.98697  -2.6216 
 C                    -2.1682   -0.44146   3.00644 
 C                    -1.9581   -0.19921   1.62362 
 N                    -0.58543  -0.25142   1.34216 
 C                     0.00009  -0.51119   2.50321 
 N                    -0.89419  -0.63597   3.5305 
 C                    -3.05862   0.04504   0.78408 
 C                    -4.32979   0.03618   1.36126 
 C                    -4.51938  -0.20863   2.74131 
 C                    -3.44024  -0.45268   3.59306 
 H                     2.15753   2.81889  -0.91531 
 H                    -0.32662   2.79251   0.86387 
 H                     0.04311  -4.24075  -1.32632 
 H                    -2.54912   1.31966  -3.35372 
 H                     4.2688   -0.53589   1.86373 
 H                     0.4735    4.33456  -1.65851 
 H                    -0.58887   4.89173  -0.3477 
 H                     1.68201  -4.3943    1.04517 
 H                    -1.62745   3.87551  -2.75711 
 H                    -1.81141  -1.36892  -4.42246 
 H                    -2.47156   3.61     -1.22506 
 H                    -1.47681  -3.52007  -3.40829 
 H                     1.7913    3.34379   2.09109 
 H                     2.83189   4.2483    0.96402 
 H                     4.45132   2.41178   0.86314 
 H                     3.88524   2.17416   2.52291 
 H                    -3.29315  -1.2799   -3.46363 
 H                     4.27233  -3.03169   0.33718 
 H                    -2.62338  -3.15394  -2.11206 
 H                     3.53872  -3.16647   1.93633 
 H                     2.59946  -4.54248  -0.45536 
 H                     1.06873  -0.61646   2.64656 
 H                    -0.66239  -0.83264   4.49878 
 H                    -2.92151   0.23503  -0.27716 
 H                    -5.20069   0.22253   0.73522 
 H                    -5.52821  -0.2066    3.1493 
 H                    -3.58464  -0.64054   4.65519 
 
 Stoichiometry    C26H29CoN6O(1+,2)
 Framework group  C1[X(C26H29CoN6O)]
 Deg. of freedom   183
 Full point group                 C1      NOp   1
 Largest Abelian subgroup         C1      NOp   1
 Largest concise Abelian subgroup C1      NOp   1
                         Standard orientation:                         
 ---------------------------------------------------------------------
 Center     Atomic      Atomic             Coordinates (Angstroms)
 Number     Number       Type             X           Y           Z
 ---------------------------------------------------------------------
      1          8           0        1.881541    0.515538   -2.574708
      2          1           0        2.475907   -0.213145   -2.841515
      3          1           0        1.226214    0.573056   -3.297750
      4         27           0        0.573576    0.025050   -0.508247
      5          7           0        1.623338   -1.525671   -0.056476
      6          6           0        2.778406   -1.525011    0.721749
      7          6           0        3.324955   -2.933691    0.886074
      8          6           0        2.220287   -3.819324    0.277469
      9          6           0        1.283885   -2.811158   -0.361788
     10          6           0        3.370248   -0.404445    1.264763
     11          6           0        2.899080    0.917593    1.024596
     12          7           0        1.819534    1.146657    0.303063
     13          6           0        1.667232    2.606035    0.048984
     14          6           0        2.441901    3.254597    1.209468
     15          6           0        3.558134    2.211688    1.476176
     16          6           0        0.164749    2.825339   -0.121866
     17          7           0       -0.285033    1.634419   -0.895456
     18          6           0       -1.201376    1.962242   -1.784575
     19          6           0       -1.518745    3.446976   -1.753000
     20          6           0       -0.318498    4.026271   -0.961861
     21          6           0        0.197909   -3.177058   -1.156557
     22          6           0       -0.678518   -2.296520   -1.786886
     23          7           0       -0.635577   -0.939348   -1.653075
     24          6           0       -1.548918   -0.362369   -2.531199
     25          6           0       -2.208411   -1.422342   -3.397728
     26          6           0       -1.797605   -2.738685   -2.709403
     27          6           0       -1.816750    0.986974   -2.621603
     28          6           0       -2.168197   -0.441464    3.006441
     29          6           0       -1.958103   -0.199207    1.623622
     30          7           0       -0.585431   -0.251424    1.342157
     31          6           0        0.000090   -0.511189    2.503210
     32          7           0       -0.894192   -0.635967    3.530501
     33          6           0       -3.058623    0.045042    0.784078
     34          6           0       -4.329787    0.036180    1.361263
     35          6           0       -4.519379   -0.208631    2.741309
     36          6           0       -3.440236   -0.452680    3.593061
     37          1           0        2.157532    2.818893   -0.915313
     38          1           0       -0.326615    2.792509    0.863866
     39          1           0        0.043105   -4.240754   -1.326321
     40          1           0       -2.549124    1.319655   -3.353719
     41          1           0        4.268804   -0.535890    1.863731
     42          1           0        0.473496    4.334563   -1.658509
     43          1           0       -0.588866    4.891733   -0.347699
     44          1           0        1.682012   -4.394301    1.045166
     45          1           0       -1.627448    3.875514   -2.757108
     46          1           0       -1.811412   -1.368916   -4.422462
     47          1           0       -2.471562    3.610003   -1.225062
     48          1           0       -1.476811   -3.520069   -3.408285
     49          1           0        1.791300    3.343791    2.091094
     50          1           0        2.831888    4.248298    0.964024
     51          1           0        4.451319    2.411776    0.863138
     52          1           0        3.885243    2.174163    2.522914
     53          1           0       -3.293150   -1.279896   -3.463628
     54          1           0        4.272327   -3.031687    0.337175
     55          1           0       -2.623375   -3.153941   -2.112060
     56          1           0        3.538719   -3.166468    1.936330
     57          1           0        2.599458   -4.542481   -0.455362
     58          1           0        1.068735   -0.616459    2.646562
     59          1           0       -0.662390   -0.832641    4.498784
     60          1           0       -2.921508    0.235025   -0.277160
     61          1           0       -5.200686    0.222525    0.735222
     62          1           0       -5.528210   -0.206603    3.149304
     63          1           0       -3.584636   -0.640541    4.655191
 ---------------------------------------------------------------------
 Rotational constants (GHZ):      0.1451135      0.1288892      0.1234770
 Standard basis: 6-311+G(d,p) (5D, 7F)
 There are   998 symmetry adapted cartesian basis functions of A   symmetry.
 There are   958 symmetry adapted basis functions of A   symmetry.
   958 basis functions,  1514 primitive gaussians,   998 cartesian basis functions
   131 alpha electrons      130 beta electrons
       nuclear repulsion energy      4595.3396461213 Hartrees.
 NAtoms=   63 NActive=   63 NUniq=   63 SFac= 1.00D+00 NAtFMM=   60 NAOKFM=T Big=T
 Integral buffers will be    131072 words long.
 Raffenetti 2 integral format.
 Two-electron integral symmetry is turned on.
 One-electron integrals computed using PRISM.
 NBasis=   958 RedAO= T EigKep=  1.21D-06  NBF=   958
 NBsUse=   950 1.00D-06 EigRej=  8.20D-07 NBFU=   950
 ExpMin= 1.33D-02 ExpMax= 2.71D+05 ExpMxC= 9.06D+03 IAcc=3 IRadAn=         5 AccDes= 0.00D+00
 Harris functional with IExCor= 1009 and IRadAn=       5 diagonalized for initial guess.
 HarFok:  IExCor= 1009 AccDes= 0.00D+00 IRadAn=         5 IDoV= 1 UseB2=F ITyADJ=14
 ICtDFT=  3500011 ScaDFX=  1.000000  1.000000  1.000000  1.000000
 FoFCou: FMM=F IPFlag=           0 FMFlag=      100000 FMFlg1=        2001
         NFxFlg=           0 DoJE=T BraDBF=F KetDBF=T FulRan=T
         wScrn=  0.000000 ICntrl=     500 IOpCl=  0 I1Cent=   200000004 NGrid=           0
         NMat0=    1 NMatS0=      1 NMatT0=    0 NMatD0=    1 NMtDS0=    0 NMtDT0=    0
 Petite list used in FoFCou.
 Initial guess <Sx>= 0.0000 <Sy>= 0.0000 <Sz>= 0.5000 <S**2>= 0.7500 S= 0.5000
 Requested convergence on RMS density matrix=1.00D-08 within 128 cycles.
 Requested convergence on MAX density matrix=1.00D-06.
 Requested convergence on             energy=1.00D-06.
 No special actions if energy rises.
 EnCoef did   100 forward-backward iterations
 Restarting incremental Fock formation.
 SCF Done:  E(UTPSS-TPSS) =  -2795.35210877     A.U. after   24 cycles
            NFock= 24  Conv=0.88D-08     -V/T= 2.0025
 <Sx>= 0.0000 <Sy>= 0.0000 <Sz>= 0.5000 <S**2>= 0.7619 S= 0.5059
 <L.S>= 0.000000000000E+00
 Annihilation of the first spin contaminant:
 S**2 before annihilation     0.7619,   after     0.7501

 **********************************************************************

            Population analysis using the SCF density.

 **********************************************************************

 Orbital symmetries:
 Alpha Orbitals:
       Occupied  (A) (A) (A) (A) (A) (A) (A) (A) (A) (A) (A) (A)
                 (A) (A) (A) (A) (A) (A) (A) (A) (A) (A) (A) (A)
                 (A) (A) (A) (A) (A) (A) (A) (A) (A) (A) (A) (A)
                 (A) (A) (A) (A) (A) (A) (A) (A) (A) (A) (A) (A)
                 (A) (A) (A) (A) (A) (A) (A) (A) (A) (A) (A) (A)
                 (A) (A) (A) (A) (A) (A) (A) (A) (A) (A) (A) (A)
                 (A) (A) (A) (A) (A) (A) (A) (A) (A) (A) (A) (A)
                 (A) (A) (A) (A) (A) (A) (A) (A) (A) (A) (A) (A)
                 (A) (A) (A) (A) (A) (A) (A) (A) (A) (A) (A) (A)
                 (A) (A) (A) (A) (A) (A) (A) (A) (A) (A) (A) (A)
                 (A) (A) (A) (A) (A) (A) (A) (A) (A) (A) (A)
       Virtual   (A) (A) (A) (A) (A) (A) (A) (A) (A) (A) (A) (A)
                 (A) (A) (A) (A) (A) (A) (A) (A) (A) (A) (A) (A)
                 (A) (A) (A) (A) (A) (A) (A) (A) (A) (A) (A) (A)
                 (A) (A) (A) (A) (A) (A) (A) (A) (A) (A) (A) (A)
                 (A) (A) (A) (A) (A) (A) (A) (A) (A) (A) (A) (A)
                 (A) (A) (A) (A) (A) (A) (A) (A) (A) (A) (A) (A)
                 (A) (A) (A) (A) (A) (A) (A) (A) (A) (A) (A) (A)
                 (A) (A) (A) (A) (A) (A) (A) (A) (A) (A) (A) (A)
                 (A) (A) (A) (A) (A) (A) (A) (A) (A) (A) (A) (A)
                 (A) (A) (A) (A) (A) (A) (A) (A) (A) (A) (A) (A)
                 (A) (A) (A) (A) (A) (A) (A) (A) (A) (A) (A) (A)
                 (A) (A) (A) (A) (A) (A) (A) (A) (A) (A) (A) (A)
                 (A) (A) (A) (A) (A) (A) (A) (A) (A) (A) (A) (A)
                 (A) (A) (A) (A) (A) (A) (A) (A) (A) (A) (A) (A)
                 (A) (A) (A) (A) (A) (A) (A) (A) (A) (A) (A) (A)
                 (A) (A) (A) (A) (A) (A) (A) (A) (A) (A) (A) (A)
                 (A) (A) (A) (A) (A) (A) (A) (A) (A) (A) (A) (A)
                 (A) (A) (A) (A) (A) (A) (A) (A) (A) (A) (A) (A)
                 (A) (A) (A) (A) (A) (A) (A) (A) (A) (A) (A) (A)
                 (A) (A) (A) (A) (A) (A) (A) (A) (A) (A) (A) (A)
                 (A) (A) (A) (A) (A) (A) (A) (A) (A) (A) (A) (A)
                 (A) (A) (A) (A) (A) (A) (A) (A) (A) (A) (A) (A)
                 (A) (A) (A) (A) (A) (A) (A) (A) (A) (A) (A) (A)
                 (A) (A) (A) (A) (A) (A) (A) (A) (A) (A) (A) (A)
                 (A) (A) (A) (A) (A) (A) (A) (A) (A) (A) (A) (A)
                 (A) (A) (A) (A) (A) (A) (A) (A) (A) (A) (A) (A)
                 (A) (A) (A) (A) (A) (A) (A) (A) (A) (A) (A) (A)
                 (A) (A) (A) (A) (A) (A) (A) (A) (A) (A) (A) (A)
                 (A) (A) (A) (A) (A) (A) (A) (A) (A) (A) (A) (A)
                 (A) (A) (A) (A) (A) (A) (A) (A) (A) (A) (A) (A)
                 (A) (A) (A) (A) (A) (A) (A) (A) (A) (A) (A) (A)
                 (A) (A) (A) (A) (A) (A) (A) (A) (A) (A) (A) (A)
                 (A) (A) (A) (A) (A) (A) (A) (A) (A) (A) (A) (A)
                 (A) (A) (A) (A) (A) (A) (A) (A) (A) (A) (A) (A)
                 (A) (A) (A) (A) (A) (A) (A) (A) (A) (A) (A) (A)
                 (A) (A) (A) (A) (A) (A) (A) (A) (A) (A) (A) (A)
                 (A) (A) (A) (A) (A) (A) (A) (A) (A) (A) (A) (A)
                 (A) (A) (A) (A) (A) (A) (A) (A) (A) (A) (A) (A)
                 (A) (A) (A) (A) (A) (A) (A) (A) (A) (A) (A) (A)
                 (A) (A) (A) (A) (A) (A) (A) (A) (A) (A) (A) (A)
                 (A) (A) (A) (A) (A) (A) (A) (A) (A) (A) (A) (A)
                 (A) (A) (A) (A) (A) (A) (A) (A) (A) (A) (A) (A)
                 (A) (A) (A) (A) (A) (A) (A) (A) (A) (A) (A) (A)
                 (A) (A) (A) (A) (A) (A) (A) (A) (A) (A) (A) (A)
                 (A) (A) (A) (A) (A) (A) (A) (A) (A) (A) (A) (A)
                 (A) (A) (A) (A) (A) (A) (A) (A) (A) (A) (A) (A)
                 (A) (A) (A) (A) (A) (A) (A) (A) (A) (A) (A) (A)
                 (A) (A) (A) (A) (A) (A) (A) (A) (A) (A) (A) (A)
                 (A) (A) (A) (A) (A) (A) (A) (A) (A) (A) (A) (A)
                 (A) (A) (A) (A) (A) (A) (A) (A) (A) (A) (A) (A)
                 (A) (A) (A) (A) (A) (A) (A) (A) (A) (A) (A) (A)
                 (A) (A) (A) (A) (A) (A) (A) (A) (A) (A) (A) (A)
                 (A) (A) (A) (A) (A) (A) (A) (A) (A) (A) (A) (A)
                 (A) (A) (A) (A) (A) (A) (A) (A) (A) (A) (A) (A)
                 (A) (A) (A) (A) (A) (A) (A) (A) (A) (A) (A) (A)
                 (A) (A) (A) (A) (A) (A) (A) (A) (A) (A) (A) (A)
                 (A) (A) (A) (A) (A) (A) (A) (A) (A) (A) (A) (A)
                 (A) (A) (A) (A) (A) (A) (A) (A) (A) (A) (A) (A)
                 (A) (A) (A) (A) (A) (A) (A) (A) (A) (A) (A) (A)
                 (A) (A) (A) (A) (A) (A) (A) (A) (A) (A) (A) (A)
                 (A) (A) (A) (A) (A) (A) (A) (A) (A) (A) (A) (A)
                 (A) (A) (A) (A) (A) (A) (A) (A) (A) (A) (A) (A)
                 (A) (A) (A) (A) (A) (A) (A) (A) (A) (A) (A) (A)
                 (A) (A) (A) (A) (A) (A) (A) (A) (A) (A) (A) (A)
                 (A) (A) (A) (A) (A) (A) (A) (A) (A) (A) (A) (A)
                 (A) (A) (A) (A) (A) (A) (A) (A) (A) (A) (A) (A)
                 (A) (A) (A) (A) (A) (A) (A) (A) (A) (A) (A) (A)
                 (A) (A) (A) (A) (A) (A) (A) (A) (A) (A) (A) (A)
                 (A) (A) (A)
 Beta  Orbitals:
       Occupied  (A) (A) (A) (A) (A) (A) (A) (A) (A) (A) (A) (A)
                 (A) (A) (A) (A) (A) (A) (A) (A) (A) (A) (A) (A)
                 (A) (A) (A) (A) (A) (A) (A) (A) (A) (A) (A) (A)
                 (A) (A) (A) (A) (A) (A) (A) (A) (A) (A) (A) (A)
                 (A) (A) (A) (A) (A) (A) (A) (A) (A) (A) (A) (A)
                 (A) (A) (A) (A) (A) (A) (A) (A) (A) (A) (A) (A)
                 (A) (A) (A) (A) (A) (A) (A) (A) (A) (A) (A) (A)
                 (A) (A) (A) (A) (A) (A) (A) (A) (A) (A) (A) (A)
                 (A) (A) (A) (A) (A) (A) (A) (A) (A) (A) (A) (A)
                 (A) (A) (A) (A) (A) (A) (A) (A) (A) (A) (A) (A)
                 (A) (A) (A) (A) (A) (A) (A) (A) (A) (A)
       Virtual   (A) (A) (A) (A) (A) (A) (A) (A) (A) (A) (A) (A)
                 (A) (A) (A) (A) (A) (A) (A) (A) (A) (A) (A) (A)
                 (A) (A) (A) (A) (A) (A) (A) (A) (A) (A) (A) (A)
                 (A) (A) (A) (A) (A) (A) (A) (A) (A) (A) (A) (A)
                 (A) (A) (A) (A) (A) (A) (A) (A) (A) (A) (A) (A)
                 (A) (A) (A) (A) (A) (A) (A) (A) (A) (A) (A) (A)
                 (A) (A) (A) (A) (A) (A) (A) (A) (A) (A) (A) (A)
                 (A) (A) (A) (A) (A) (A) (A) (A) (A) (A) (A) (A)
                 (A) (A) (A) (A) (A) (A) (A) (A) (A) (A) (A) (A)
                 (A) (A) (A) (A) (A) (A) (A) (A) (A) (A) (A) (A)
                 (A) (A) (A) (A) (A) (A) (A) (A) (A) (A) (A) (A)
                 (A) (A) (A) (A) (A) (A) (A) (A) (A) (A) (A) (A)
                 (A) (A) (A) (A) (A) (A) (A) (A) (A) (A) (A) (A)
                 (A) (A) (A) (A) (A) (A) (A) (A) (A) (A) (A) (A)
                 (A) (A) (A) (A) (A) (A) (A) (A) (A) (A) (A) (A)
                 (A) (A) (A) (A) (A) (A) (A) (A) (A) (A) (A) (A)
                 (A) (A) (A) (A) (A) (A) (A) (A) (A) (A) (A) (A)
                 (A) (A) (A) (A) (A) (A) (A) (A) (A) (A) (A) (A)
                 (A) (A) (A) (A) (A) (A) (A) (A) (A) (A) (A) (A)
                 (A) (A) (A) (A) (A) (A) (A) (A) (A) (A) (A) (A)
                 (A) (A) (A) (A) (A) (A) (A) (A) (A) (A) (A) (A)
                 (A) (A) (A) (A) (A) (A) (A) (A) (A) (A) (A) (A)
                 (A) (A) (A) (A) (A) (A) (A) (A) (A) (A) (A) (A)
                 (A) (A) (A) (A) (A) (A) (A) (A) (A) (A) (A) (A)
                 (A) (A) (A) (A) (A) (A) (A) (A) (A) (A) (A) (A)
                 (A) (A) (A) (A) (A) (A) (A) (A) (A) (A) (A) (A)
                 (A) (A) (A) (A) (A) (A) (A) (A) (A) (A) (A) (A)
                 (A) (A) (A) (A) (A) (A) (A) (A) (A) (A) (A) (A)
                 (A) (A) (A) (A) (A) (A) (A) (A) (A) (A) (A) (A)
                 (A) (A) (A) (A) (A) (A) (A) (A) (A) (A) (A) (A)
                 (A) (A) (A) (A) (A) (A) (A) (A) (A) (A) (A) (A)
                 (A) (A) (A) (A) (A) (A) (A) (A) (A) (A) (A) (A)
                 (A) (A) (A) (A) (A) (A) (A) (A) (A) (A) (A) (A)
                 (A) (A) (A) (A) (A) (A) (A) (A) (A) (A) (A) (A)
                 (A) (A) (A) (A) (A) (A) (A) (A) (A) (A) (A) (A)
                 (A) (A) (A) (A) (A) (A) (A) (A) (A) (A) (A) (A)
                 (A) (A) (A) (A) (A) (A) (A) (A) (A) (A) (A) (A)
                 (A) (A) (A) (A) (A) (A) (A) (A) (A) (A) (A) (A)
                 (A) (A) (A) (A) (A) (A) (A) (A) (A) (A) (A) (A)
                 (A) (A) (A) (A) (A) (A) (A) (A) (A) (A) (A) (A)
                 (A) (A) (A) (A) (A) (A) (A) (A) (A) (A) (A) (A)
                 (A) (A) (A) (A) (A) (A) (A) (A) (A) (A) (A) (A)
                 (A) (A) (A) (A) (A) (A) (A) (A) (A) (A) (A) (A)
                 (A) (A) (A) (A) (A) (A) (A) (A) (A) (A) (A) (A)
                 (A) (A) (A) (A) (A) (A) (A) (A) (A) (A) (A) (A)
                 (A) (A) (A) (A) (A) (A) (A) (A) (A) (A) (A) (A)
                 (A) (A) (A) (A) (A) (A) (A) (A) (A) (A) (A) (A)
                 (A) (A) (A) (A) (A) (A) (A) (A) (A) (A) (A) (A)
                 (A) (A) (A) (A) (A) (A) (A) (A) (A) (A) (A) (A)
                 (A) (A) (A) (A) (A) (A) (A) (A) (A) (A) (A) (A)
                 (A) (A) (A) (A) (A) (A) (A) (A) (A) (A) (A) (A)
                 (A) (A) (A) (A) (A) (A) (A) (A) (A) (A) (A) (A)
                 (A) (A) (A) (A) (A) (A) (A) (A) (A) (A) (A) (A)
                 (A) (A) (A) (A) (A) (A) (A) (A) (A) (A) (A) (A)
                 (A) (A) (A) (A) (A) (A) (A) (A) (A) (A) (A) (A)
                 (A) (A) (A) (A) (A) (A) (A) (A) (A) (A) (A) (A)
                 (A) (A) (A) (A) (A) (A) (A) (A) (A) (A) (A) (A)
                 (A) (A) (A) (A) (A) (A) (A) (A) (A) (A) (A) (A)
                 (A) (A) (A) (A) (A) (A) (A) (A) (A) (A) (A) (A)
                 (A) (A) (A) (A) (A) (A) (A) (A) (A) (A) (A) (A)
                 (A) (A) (A) (A) (A) (A) (A) (A) (A) (A) (A) (A)
                 (A) (A) (A) (A) (A) (A) (A) (A) (A) (A) (A) (A)
                 (A) (A) (A) (A) (A) (A) (A) (A) (A) (A) (A) (A)
                 (A) (A) (A) (A) (A) (A) (A) (A) (A) (A) (A) (A)
                 (A) (A) (A) (A) (A) (A) (A) (A) (A) (A) (A) (A)
                 (A) (A) (A) (A) (A) (A) (A) (A) (A) (A) (A) (A)
                 (A) (A) (A) (A) (A) (A) (A) (A) (A) (A) (A) (A)
                 (A) (A) (A) (A) (A) (A) (A) (A) (A) (A) (A) (A)
                 (A) (A) (A) (A)
 The electronic state is 2-A.
 Alpha  occ. eigenvalues -- -276.73128 -32.52715 -28.20115 -28.20038 -28.19638
 Alpha  occ. eigenvalues --  -18.99899 -14.26015 -14.22502 -14.22338 -14.21306
 Alpha  occ. eigenvalues --  -14.21169 -14.20769 -10.15620 -10.13557 -10.13548
 Alpha  occ. eigenvalues --  -10.13486 -10.13409 -10.13205 -10.13103 -10.12352
 Alpha  occ. eigenvalues --  -10.12190 -10.12029 -10.11118 -10.09812 -10.09763
 Alpha  occ. eigenvalues --  -10.09760 -10.09640 -10.09591 -10.09519 -10.09017
 Alpha  occ. eigenvalues --  -10.08951 -10.08758 -10.08493 -10.08477 -10.08202
 Alpha  occ. eigenvalues --  -10.08167 -10.07943 -10.07729  -3.69313  -2.39734
 Alpha  occ. eigenvalues --   -2.39643  -2.39531  -1.05629  -1.05557  -1.00388
 Alpha  occ. eigenvalues --   -0.99107  -0.99075  -0.97091  -0.92595  -0.87834
 Alpha  occ. eigenvalues --   -0.85818  -0.82690  -0.82393  -0.82119  -0.81741
 Alpha  occ. eigenvalues --   -0.81170  -0.80381  -0.78386  -0.77918  -0.76358
 Alpha  occ. eigenvalues --   -0.75497  -0.70008  -0.69133  -0.68016  -0.67727
 Alpha  occ. eigenvalues --   -0.66777  -0.64915  -0.64548  -0.64500  -0.63303
 Alpha  occ. eigenvalues --   -0.61217  -0.60465  -0.59928  -0.59295  -0.59120
 Alpha  occ. eigenvalues --   -0.56651  -0.56300  -0.55891  -0.55635  -0.55132
 Alpha  occ. eigenvalues --   -0.53899  -0.53788  -0.53428  -0.53293  -0.52193
 Alpha  occ. eigenvalues --   -0.51578  -0.50481  -0.49891  -0.49188  -0.48890
 Alpha  occ. eigenvalues --   -0.48235  -0.47630  -0.47349  -0.46876  -0.46588
 Alpha  occ. eigenvalues --   -0.45729  -0.45163  -0.45055  -0.44997  -0.44547
 Alpha  occ. eigenvalues --   -0.44307  -0.44226  -0.44180  -0.43601  -0.43517
 Alpha  occ. eigenvalues --   -0.43424  -0.42547  -0.42097  -0.41961  -0.41902
 Alpha  occ. eigenvalues --   -0.41449  -0.41228  -0.40347  -0.40117  -0.39840
 Alpha  occ. eigenvalues --   -0.39497  -0.38958  -0.38569  -0.37931  -0.37844
 Alpha  occ. eigenvalues --   -0.37158  -0.36616  -0.34097  -0.32108  -0.30602
 Alpha  occ. eigenvalues --   -0.30428  -0.30310  -0.28775  -0.28060  -0.27111
 Alpha  occ. eigenvalues --   -0.25467
 Alpha virt. eigenvalues --   -0.19490  -0.16759  -0.16229  -0.14605  -0.13841
 Alpha virt. eigenvalues --   -0.12017  -0.10842  -0.10496  -0.09620  -0.09045
 Alpha virt. eigenvalues --   -0.08581  -0.08218  -0.07974  -0.07761  -0.07562
 Alpha virt. eigenvalues --   -0.07403  -0.07282  -0.06950  -0.06125  -0.05814
 Alpha virt. eigenvalues --   -0.05739  -0.05009  -0.04932  -0.04634  -0.04534
 Alpha virt. eigenvalues --   -0.04202  -0.04158  -0.03683  -0.03232  -0.02991
 Alpha virt. eigenvalues --   -0.02688  -0.02614  -0.02309  -0.02106  -0.01586
 Alpha virt. eigenvalues --   -0.01434  -0.01412  -0.00971  -0.00663  -0.00522
 Alpha virt. eigenvalues --   -0.00335   0.00039   0.00455   0.00656   0.01184
 Alpha virt. eigenvalues --    0.01511   0.01589   0.01767   0.01874   0.02057
 Alpha virt. eigenvalues --    0.02290   0.02717   0.02999   0.03167   0.03255
 Alpha virt. eigenvalues --    0.03559   0.03679   0.04011   0.04120   0.04289
 Alpha virt. eigenvalues --    0.04366   0.04604   0.04818   0.05222   0.05248
 Alpha virt. eigenvalues --    0.05400   0.05704   0.05846   0.05934   0.06385
 Alpha virt. eigenvalues --    0.06552   0.06834   0.06984   0.07142   0.07367
 Alpha virt. eigenvalues --    0.07648   0.07774   0.07892   0.08182   0.08444
 Alpha virt. eigenvalues --    0.08636   0.08676   0.08688   0.09049   0.09283
 Alpha virt. eigenvalues --    0.09509   0.09541   0.09797   0.09926   0.10069
 Alpha virt. eigenvalues --    0.10168   0.10320   0.10404   0.10890   0.10904
 Alpha virt. eigenvalues --    0.10984   0.11183   0.11371   0.11490   0.11630
 Alpha virt. eigenvalues --    0.11722   0.11955   0.12288   0.12494   0.12713
 Alpha virt. eigenvalues --    0.12840   0.13345   0.13435   0.13814   0.13842
 Alpha virt. eigenvalues --    0.14222   0.14377   0.14680   0.14753   0.14784
 Alpha virt. eigenvalues --    0.15200   0.15303   0.15566   0.15713   0.15939
 Alpha virt. eigenvalues --    0.16204   0.16406   0.16462   0.16757   0.16904
 Alpha virt. eigenvalues --    0.16972   0.17171   0.17615   0.17698   0.17965
 Alpha virt. eigenvalues --    0.18032   0.18121   0.18304   0.18642   0.18793
 Alpha virt. eigenvalues --    0.18959   0.19053   0.19112   0.19271   0.19386
 Alpha virt. eigenvalues --    0.19618   0.20061   0.20179   0.20352   0.20448
 Alpha virt. eigenvalues --    0.20748   0.20816   0.20993   0.21390   0.21490
 Alpha virt. eigenvalues --    0.21695   0.21940   0.22348   0.22476   0.22748
 Alpha virt. eigenvalues --    0.22951   0.23158   0.23394   0.23588   0.23995
 Alpha virt. eigenvalues --    0.24298   0.24499   0.24799   0.24868   0.25424
 Alpha virt. eigenvalues --    0.25529   0.25907   0.26115   0.26246   0.26376
 Alpha virt. eigenvalues --    0.26560   0.26884   0.27047   0.27456   0.27955
 Alpha virt. eigenvalues --    0.28226   0.28474   0.28896   0.28984   0.29472
 Alpha virt. eigenvalues --    0.29893   0.30636   0.30808   0.31092   0.31198
 Alpha virt. eigenvalues --    0.31563   0.32361   0.32927   0.33200   0.33333
 Alpha virt. eigenvalues --    0.34151   0.34326   0.34714   0.34835   0.35630
 Alpha virt. eigenvalues --    0.35836   0.36644   0.36770   0.36918   0.37111
 Alpha virt. eigenvalues --    0.37570   0.37701   0.38241   0.38967   0.39067
 Alpha virt. eigenvalues --    0.39261   0.39658   0.40576   0.40842   0.41385
 Alpha virt. eigenvalues --    0.41926   0.42267   0.42486   0.42641   0.43231
 Alpha virt. eigenvalues --    0.43403   0.44037   0.44409   0.44560   0.44955
 Alpha virt. eigenvalues --    0.45260   0.45624   0.45948   0.46694   0.47063
 Alpha virt. eigenvalues --    0.47241   0.47513   0.48105   0.48452   0.48706
 Alpha virt. eigenvalues --    0.48888   0.49262   0.49830   0.50212   0.50793
 Alpha virt. eigenvalues --    0.51033   0.51529   0.51865   0.52128   0.52516
 Alpha virt. eigenvalues --    0.52638   0.53134   0.53891   0.54358   0.54697
 Alpha virt. eigenvalues --    0.55230   0.55534   0.55668   0.55788   0.55999
 Alpha virt. eigenvalues --    0.56230   0.56398   0.56927   0.57296   0.57513
 Alpha virt. eigenvalues --    0.58157   0.58300   0.58508   0.58915   0.59152
 Alpha virt. eigenvalues --    0.59325   0.59622   0.60059   0.60210   0.60533
 Alpha virt. eigenvalues --    0.60731   0.60926   0.61450   0.61977   0.62419
 Alpha virt. eigenvalues --    0.62548   0.62722   0.63104   0.63283   0.63554
 Alpha virt. eigenvalues --    0.63890   0.64284   0.64479   0.64780   0.64863
 Alpha virt. eigenvalues --    0.65048   0.65567   0.65676   0.66085   0.66435
 Alpha virt. eigenvalues --    0.66899   0.67604   0.68152   0.68327   0.68418
 Alpha virt. eigenvalues --    0.69029   0.69476   0.70128   0.70598   0.70913
 Alpha virt. eigenvalues --    0.71166   0.71806   0.72280   0.72744   0.73722
 Alpha virt. eigenvalues --    0.74411   0.75013   0.75371   0.75402   0.76082
 Alpha virt. eigenvalues --    0.76680   0.77171   0.77399   0.78516   0.79406
 Alpha virt. eigenvalues --    0.80291   0.80791   0.81453   0.82364   0.82453
 Alpha virt. eigenvalues --    0.83196   0.83661   0.84354   0.84667   0.84925
 Alpha virt. eigenvalues --    0.85147   0.85670   0.86367   0.86582   0.87299
 Alpha virt. eigenvalues --    0.88051   0.88580   0.88983   0.89683   0.90357
 Alpha virt. eigenvalues --    0.90567   0.91203   0.91620   0.91886   0.92770
 Alpha virt. eigenvalues --    0.93719   0.94341   0.94552   0.95006   0.95588
 Alpha virt. eigenvalues --    0.96524   0.96804   0.97825   0.98462   0.98708
 Alpha virt. eigenvalues --    0.99311   0.99603   1.00138   1.00723   1.01275
 Alpha virt. eigenvalues --    1.01938   1.02258   1.02875   1.03243   1.03924
 Alpha virt. eigenvalues --    1.04785   1.05693   1.05952   1.06146   1.06497
 Alpha virt. eigenvalues --    1.08021   1.08333   1.08818   1.09407   1.10215
 Alpha virt. eigenvalues --    1.11048   1.11743   1.12324   1.12540   1.13381
 Alpha virt. eigenvalues --    1.13655   1.14092   1.15056   1.15804   1.16128
 Alpha virt. eigenvalues --    1.16412   1.18029   1.19334   1.19556   1.20228
 Alpha virt. eigenvalues --    1.20917   1.21105   1.22181   1.22810   1.23940
 Alpha virt. eigenvalues --    1.24419   1.24997   1.25457   1.26072   1.27310
 Alpha virt. eigenvalues --    1.27856   1.29141   1.29424   1.29574   1.30510
 Alpha virt. eigenvalues --    1.31199   1.32360   1.33045   1.33835   1.34208
 Alpha virt. eigenvalues --    1.34741   1.35327   1.35652   1.36228   1.36532
 Alpha virt. eigenvalues --    1.37759   1.38332   1.38920   1.39419   1.39814
 Alpha virt. eigenvalues --    1.40775   1.41318   1.41535   1.42082   1.42592
 Alpha virt. eigenvalues --    1.42807   1.43575   1.43898   1.44570   1.45197
 Alpha virt. eigenvalues --    1.45731   1.46252   1.46339   1.46649   1.47168
 Alpha virt. eigenvalues --    1.47882   1.48047   1.48183   1.48613   1.49051
 Alpha virt. eigenvalues --    1.49399   1.49711   1.50364   1.51339   1.51561
 Alpha virt. eigenvalues --    1.52162   1.52273   1.52794   1.53673   1.54417
 Alpha virt. eigenvalues --    1.55021   1.55274   1.55481   1.56546   1.56837
 Alpha virt. eigenvalues --    1.57137   1.57540   1.57775   1.58157   1.58557
 Alpha virt. eigenvalues --    1.59065   1.59482   1.59822   1.60037   1.60581
 Alpha virt. eigenvalues --    1.60764   1.61730   1.62044   1.62785   1.63157
 Alpha virt. eigenvalues --    1.63451   1.63617   1.64098   1.64595   1.64914
 Alpha virt. eigenvalues --    1.65645   1.66237   1.67113   1.67321   1.67478
 Alpha virt. eigenvalues --    1.67784   1.67851   1.69126   1.69294   1.70166
 Alpha virt. eigenvalues --    1.70716   1.71088   1.71556   1.71820   1.72612
 Alpha virt. eigenvalues --    1.73523   1.73628   1.74200   1.74805   1.75334
 Alpha virt. eigenvalues --    1.75928   1.76563   1.76995   1.77326   1.77622
 Alpha virt. eigenvalues --    1.78053   1.78639   1.78979   1.79738   1.79913
 Alpha virt. eigenvalues --    1.80556   1.80881   1.81386   1.81495   1.82044
 Alpha virt. eigenvalues --    1.82593   1.83406   1.84146   1.84643   1.86040
 Alpha virt. eigenvalues --    1.86645   1.87449   1.87635   1.88908   1.89263
 Alpha virt. eigenvalues --    1.90168   1.90639   1.91363   1.91576   1.91940
 Alpha virt. eigenvalues --    1.92260   1.92696   1.93332   1.94168   1.94866
 Alpha virt. eigenvalues --    1.95204   1.95769   1.96273   1.97550   1.98681
 Alpha virt. eigenvalues --    2.00254   2.01408   2.02293   2.02725   2.03595
 Alpha virt. eigenvalues --    2.04113   2.04247   2.04615   2.05608   2.06556
 Alpha virt. eigenvalues --    2.07962   2.08172   2.08603   2.09111   2.09554
 Alpha virt. eigenvalues --    2.09965   2.10751   2.11377   2.12279   2.12968
 Alpha virt. eigenvalues --    2.13516   2.14184   2.14808   2.14872   2.15606
 Alpha virt. eigenvalues --    2.15929   2.16493   2.17685   2.18190   2.19258
 Alpha virt. eigenvalues --    2.19537   2.21089   2.22894   2.23471   2.24155
 Alpha virt. eigenvalues --    2.25353   2.26734   2.28917   2.29524   2.30097
 Alpha virt. eigenvalues --    2.30721   2.31192   2.31350   2.31733   2.33939
 Alpha virt. eigenvalues --    2.35297   2.35990   2.36664   2.37152   2.37530
 Alpha virt. eigenvalues --    2.38429   2.38918   2.40498   2.40900   2.41455
 Alpha virt. eigenvalues --    2.41830   2.42927   2.44215   2.44739   2.45015
 Alpha virt. eigenvalues --    2.45631   2.45848   2.46079   2.48069   2.48435
 Alpha virt. eigenvalues --    2.48843   2.49206   2.50414   2.51127   2.52043
 Alpha virt. eigenvalues --    2.52748   2.53246   2.53457   2.54345   2.55855
 Alpha virt. eigenvalues --    2.56347   2.56630   2.57136   2.58436   2.59135
 Alpha virt. eigenvalues --    2.59480   2.60079   2.60337   2.60939   2.61486
 Alpha virt. eigenvalues --    2.62172   2.62758   2.63659   2.63944   2.65309
 Alpha virt. eigenvalues --    2.65625   2.66101   2.66516   2.67042   2.67147
 Alpha virt. eigenvalues --    2.68041   2.68860   2.70136   2.70355   2.70914
 Alpha virt. eigenvalues --    2.71982   2.72359   2.73201   2.73506   2.74088
 Alpha virt. eigenvalues --    2.74681   2.75597   2.76075   2.76698   2.77796
 Alpha virt. eigenvalues --    2.78580   2.79558   2.80546   2.80786   2.82012
 Alpha virt. eigenvalues --    2.82414   2.82787   2.83341   2.83678   2.84124
 Alpha virt. eigenvalues --    2.84582   2.84956   2.85543   2.85943   2.86272
 Alpha virt. eigenvalues --    2.86660   2.87793   2.87910   2.88389   2.88836
 Alpha virt. eigenvalues --    2.89638   2.90459   2.91375   2.92375   2.92986
 Alpha virt. eigenvalues --    2.93973   2.94230   2.94340   2.95959   2.96250
 Alpha virt. eigenvalues --    2.96815   2.97437   2.98306   2.99025   2.99294
 Alpha virt. eigenvalues --    3.00018   3.01606   3.02625   3.03533   3.04878
 Alpha virt. eigenvalues --    3.05564   3.06391   3.06773   3.08728   3.09587
 Alpha virt. eigenvalues --    3.10351   3.11486   3.12528   3.13607   3.14734
 Alpha virt. eigenvalues --    3.15950   3.17521   3.17902   3.19331   3.20372
 Alpha virt. eigenvalues --    3.20995   3.21808   3.24464   3.26118   3.27849
 Alpha virt. eigenvalues --    3.32770   3.33419   3.33726   3.35033   3.35416
 Alpha virt. eigenvalues --    3.37028   3.40287   3.42382   3.43583   3.46382
 Alpha virt. eigenvalues --    3.49499   3.51902   3.52496   3.53739   3.54780
 Alpha virt. eigenvalues --    3.55760   3.56868   3.57009   3.58119   3.59440
 Alpha virt. eigenvalues --    3.59574   3.59917   3.63736   3.65216   3.70168
 Alpha virt. eigenvalues --    3.75119   3.76374   3.77998   3.79032   3.79481
 Alpha virt. eigenvalues --    3.81420   3.83007   3.84079   3.84907   3.85265
 Alpha virt. eigenvalues --    3.86365   3.88951   3.90102   3.90638   3.91173
 Alpha virt. eigenvalues --    3.94427   3.95388   3.96034   3.96326   3.98360
 Alpha virt. eigenvalues --    4.03798   4.04291   4.06096   4.09467   4.11829
 Alpha virt. eigenvalues --    4.13252   4.14572   4.14801   4.15841   4.16582
 Alpha virt. eigenvalues --    4.18955   4.21859   4.22953   4.29797   4.33075
 Alpha virt. eigenvalues --    4.36270   4.38336   4.58035   4.59068   4.60283
 Alpha virt. eigenvalues --    4.70651   4.72125   4.74279   4.83323   4.85053
 Alpha virt. eigenvalues --    4.93414   4.99180   5.04649   5.10417   5.19518
 Alpha virt. eigenvalues --    5.35843   5.49993   6.22769   6.24425   6.38421
 Alpha virt. eigenvalues --    6.58334   6.80172   8.42209   8.49835   8.55763
 Alpha virt. eigenvalues --   23.57763  23.72077  23.72848  23.75552  23.76482
 Alpha virt. eigenvalues --   23.77325  23.79049  23.79580  23.79796  23.80001
 Alpha virt. eigenvalues --   23.82130  23.83509  23.85164  23.86187  23.86360
 Alpha virt. eigenvalues --   23.88958  23.89489  23.90303  23.91109  23.93126
 Alpha virt. eigenvalues --   23.94754  24.00044  24.02640  24.04076  24.05541
 Alpha virt. eigenvalues --   24.07966  28.13990  33.97996  34.02172  34.07118
 Alpha virt. eigenvalues --   35.51437  35.57476  35.58597  35.61693  35.62961
 Alpha virt. eigenvalues --   35.64504  49.88524 153.69958 804.77551
  Beta  occ. eigenvalues -- -276.73127 -32.50924 -28.19104 -28.19025 -28.17349
  Beta  occ. eigenvalues --  -18.99791 -14.26011 -14.22503 -14.22337 -14.21311
  Beta  occ. eigenvalues --  -14.21175 -14.20526 -10.15625 -10.13579 -10.13568
  Beta  occ. eigenvalues --  -10.13524 -10.13447 -10.13229 -10.13126 -10.12342
  Beta  occ. eigenvalues --  -10.12193 -10.12031 -10.11110 -10.09812 -10.09762
  Beta  occ. eigenvalues --  -10.09760 -10.09639 -10.09592 -10.09519 -10.09018
  Beta  occ. eigenvalues --  -10.08951 -10.08758 -10.08482 -10.08463 -10.08187
  Beta  occ. eigenvalues --  -10.08165 -10.07942 -10.07730  -3.64980  -2.36604
  Beta  occ. eigenvalues --   -2.36421  -2.32949  -1.05490  -1.05467  -1.00396
  Beta  occ. eigenvalues --   -0.99118  -0.99089  -0.97099  -0.92444  -0.87817
  Beta  occ. eigenvalues --   -0.85838  -0.82704  -0.82404  -0.82123  -0.81743
  Beta  occ. eigenvalues --   -0.81174  -0.80382  -0.78378  -0.77898  -0.76352
  Beta  occ. eigenvalues --   -0.75529  -0.70015  -0.69137  -0.67995  -0.67640
  Beta  occ. eigenvalues --   -0.66778  -0.64872  -0.64561  -0.64516  -0.63311
  Beta  occ. eigenvalues --   -0.61222  -0.60421  -0.59908  -0.59248  -0.59069
  Beta  occ. eigenvalues --   -0.56663  -0.56312  -0.55906  -0.55604  -0.55043
  Beta  occ. eigenvalues --   -0.53891  -0.53797  -0.53433  -0.53299  -0.52192
  Beta  occ. eigenvalues --   -0.51572  -0.50442  -0.49818  -0.49182  -0.48872
  Beta  occ. eigenvalues --   -0.48223  -0.47586  -0.47298  -0.46733  -0.46568
  Beta  occ. eigenvalues --   -0.45725  -0.45146  -0.45039  -0.44977  -0.44534
  Beta  occ. eigenvalues --   -0.44270  -0.44210  -0.44088  -0.43591  -0.43342
  Beta  occ. eigenvalues --   -0.43125  -0.42280  -0.41972  -0.41913  -0.41736
  Beta  occ. eigenvalues --   -0.41450  -0.41218  -0.40343  -0.39843  -0.39792
  Beta  occ. eigenvalues --   -0.38884  -0.38564  -0.38352  -0.37817  -0.37527
  Beta  occ. eigenvalues --   -0.37093  -0.36607  -0.34020  -0.31638  -0.30600
  Beta  occ. eigenvalues --   -0.30295  -0.28694  -0.27819  -0.26922  -0.26194
  Beta virt. eigenvalues --   -0.19437  -0.17408  -0.16231  -0.14589  -0.14166
  Beta virt. eigenvalues --   -0.13804  -0.11853  -0.10840  -0.10483  -0.09514
  Beta virt. eigenvalues --   -0.09033  -0.08572  -0.08188  -0.07971  -0.07784
  Beta virt. eigenvalues --   -0.07551  -0.07394  -0.07255  -0.06948  -0.06120
  Beta virt. eigenvalues --   -0.05810  -0.05738  -0.04993  -0.04917  -0.04624
  Beta virt. eigenvalues --   -0.04531  -0.04200  -0.04158  -0.03675  -0.03233
  Beta virt. eigenvalues --   -0.02970  -0.02662  -0.02604  -0.02303  -0.02090
  Beta virt. eigenvalues --   -0.01562  -0.01423  -0.01403  -0.00966  -0.00657
  Beta virt. eigenvalues --   -0.00498  -0.00329   0.00043   0.00458   0.00661
  Beta virt. eigenvalues --    0.01187   0.01509   0.01589   0.01764   0.01871
  Beta virt. eigenvalues --    0.02060   0.02292   0.02743   0.02995   0.03179
  Beta virt. eigenvalues --    0.03263   0.03570   0.03684   0.04008   0.04122
  Beta virt. eigenvalues --    0.04297   0.04370   0.04610   0.04826   0.05218
  Beta virt. eigenvalues --    0.05262   0.05406   0.05709   0.05848   0.05951
  Beta virt. eigenvalues --    0.06386   0.06553   0.06836   0.06987   0.07146
  Beta virt. eigenvalues --    0.07376   0.07670   0.07803   0.07916   0.08183
  Beta virt. eigenvalues --    0.08449   0.08638   0.08681   0.08703   0.09060
  Beta virt. eigenvalues --    0.09306   0.09517   0.09570   0.09803   0.09943
  Beta virt. eigenvalues --    0.10107   0.10178   0.10329   0.10411   0.10894
  Beta virt. eigenvalues --    0.10914   0.11058   0.11194   0.11394   0.11509
  Beta virt. eigenvalues --    0.11648   0.11740   0.11975   0.12318   0.12504
  Beta virt. eigenvalues --    0.12752   0.12846   0.13403   0.13454   0.13822
  Beta virt. eigenvalues --    0.13857   0.14242   0.14393   0.14685   0.14760
  Beta virt. eigenvalues --    0.14806   0.15224   0.15305   0.15573   0.15733
  Beta virt. eigenvalues --    0.15952   0.16248   0.16437   0.16476   0.16796
  Beta virt. eigenvalues --    0.16942   0.17049   0.17238   0.17629   0.17758
  Beta virt. eigenvalues --    0.17980   0.18062   0.18134   0.18317   0.18662
  Beta virt. eigenvalues --    0.18823   0.18970   0.19066   0.19264   0.19299
  Beta virt. eigenvalues --    0.19484   0.19634   0.20103   0.20183   0.20355
  Beta virt. eigenvalues --    0.20483   0.20780   0.20875   0.21079   0.21397
  Beta virt. eigenvalues --    0.21502   0.21705   0.21960   0.22420   0.22520
  Beta virt. eigenvalues --    0.22785   0.22966   0.23162   0.23418   0.23659
  Beta virt. eigenvalues --    0.24043   0.24303   0.24524   0.24827   0.24881
  Beta virt. eigenvalues --    0.25442   0.25545   0.25918   0.26178   0.26295
  Beta virt. eigenvalues --    0.26412   0.26591   0.26932   0.27066   0.27525
  Beta virt. eigenvalues --    0.27982   0.28256   0.28524   0.28932   0.29018
  Beta virt. eigenvalues --    0.29545   0.29944   0.30665   0.30844   0.31144
  Beta virt. eigenvalues --    0.31225   0.31587   0.32440   0.32966   0.33211
  Beta virt. eigenvalues --    0.33354   0.34188   0.34388   0.34745   0.34932
  Beta virt. eigenvalues --    0.35663   0.35866   0.36656   0.36777   0.36925
  Beta virt. eigenvalues --    0.37137   0.37580   0.37713   0.38293   0.39028
  Beta virt. eigenvalues --    0.39118   0.39300   0.39717   0.40608   0.40907
  Beta virt. eigenvalues --    0.41416   0.41972   0.42300   0.42504   0.42658
  Beta virt. eigenvalues --    0.43283   0.43442   0.44072   0.44429   0.44610
  Beta virt. eigenvalues --    0.44969   0.45306   0.45660   0.45979   0.46715
  Beta virt. eigenvalues --    0.47092   0.47278   0.47521   0.48119   0.48479
  Beta virt. eigenvalues --    0.48725   0.48932   0.49302   0.49871   0.50237
  Beta virt. eigenvalues --    0.50800   0.51057   0.51540   0.51871   0.52193
  Beta virt. eigenvalues --    0.52564   0.52690   0.53174   0.53904   0.54365
  Beta virt. eigenvalues --    0.54703   0.55253   0.55556   0.55674   0.55801
  Beta virt. eigenvalues --    0.56024   0.56245   0.56413   0.56929   0.57312
  Beta virt. eigenvalues --    0.57524   0.58152   0.58304   0.58531   0.58920
  Beta virt. eigenvalues --    0.59150   0.59330   0.59628   0.60060   0.60235
  Beta virt. eigenvalues --    0.60545   0.60731   0.60945   0.61469   0.61991
  Beta virt. eigenvalues --    0.62424   0.62573   0.62740   0.63133   0.63297
  Beta virt. eigenvalues --    0.63567   0.63909   0.64300   0.64513   0.64785
  Beta virt. eigenvalues --    0.64871   0.65068   0.65603   0.65682   0.66099
  Beta virt. eigenvalues --    0.66454   0.66913   0.67623   0.68199   0.68359
  Beta virt. eigenvalues --    0.68420   0.69056   0.69493   0.70135   0.70601
  Beta virt. eigenvalues --    0.70915   0.71199   0.71814   0.72303   0.72767
  Beta virt. eigenvalues --    0.73763   0.74445   0.75043   0.75400   0.75448
  Beta virt. eigenvalues --    0.76140   0.76693   0.77187   0.77414   0.78537
  Beta virt. eigenvalues --    0.79415   0.80306   0.80824   0.81479   0.82375
  Beta virt. eigenvalues --    0.82474   0.83220   0.83682   0.84458   0.84696
  Beta virt. eigenvalues --    0.84971   0.85173   0.85709   0.86398   0.86598
  Beta virt. eigenvalues --    0.87316   0.88095   0.88601   0.88988   0.89733
  Beta virt. eigenvalues --    0.90398   0.90603   0.91240   0.91628   0.91915
  Beta virt. eigenvalues --    0.92794   0.93739   0.94358   0.94576   0.95029
  Beta virt. eigenvalues --    0.95601   0.96561   0.96811   0.97843   0.98505
  Beta virt. eigenvalues --    0.98747   0.99339   0.99619   1.00149   1.00770
  Beta virt. eigenvalues --    1.01295   1.01957   1.02282   1.02890   1.03296
  Beta virt. eigenvalues --    1.03946   1.04818   1.05714   1.05968   1.06170
  Beta virt. eigenvalues --    1.06527   1.08024   1.08370   1.08858   1.09462
  Beta virt. eigenvalues --    1.10253   1.11060   1.11802   1.12356   1.12663
  Beta virt. eigenvalues --    1.13398   1.13701   1.14147   1.15065   1.15839
  Beta virt. eigenvalues --    1.16161   1.16464   1.18059   1.19394   1.19639
  Beta virt. eigenvalues --    1.20260   1.20979   1.21306   1.22379   1.22877
  Beta virt. eigenvalues --    1.23967   1.24485   1.25058   1.25475   1.26121
  Beta virt. eigenvalues --    1.27358   1.27996   1.29192   1.29484   1.29584
  Beta virt. eigenvalues --    1.30566   1.31247   1.32384   1.33058   1.33949
  Beta virt. eigenvalues --    1.34278   1.34901   1.35360   1.35738   1.36313
  Beta virt. eigenvalues --    1.36572   1.37785   1.38377   1.38940   1.39547
  Beta virt. eigenvalues --    1.39816   1.40772   1.41353   1.41572   1.42096
  Beta virt. eigenvalues --    1.42601   1.42826   1.43617   1.43903   1.44594
  Beta virt. eigenvalues --    1.45214   1.45777   1.46262   1.46355   1.46658
  Beta virt. eigenvalues --    1.47182   1.47951   1.48078   1.48216   1.48642
  Beta virt. eigenvalues --    1.49076   1.49448   1.49798   1.50414   1.51423
  Beta virt. eigenvalues --    1.51636   1.52252   1.52308   1.52885   1.53763
  Beta virt. eigenvalues --    1.54502   1.55151   1.55310   1.55525   1.56607
  Beta virt. eigenvalues --    1.56878   1.57368   1.57571   1.57878   1.58207
  Beta virt. eigenvalues --    1.58630   1.59127   1.59518   1.59876   1.60105
  Beta virt. eigenvalues --    1.60640   1.60791   1.61879   1.62137   1.62886
  Beta virt. eigenvalues --    1.63236   1.63486   1.63686   1.64153   1.64741
  Beta virt. eigenvalues --    1.64992   1.65684   1.66338   1.67226   1.67382
  Beta virt. eigenvalues --    1.67521   1.67899   1.68002   1.69230   1.69458
  Beta virt. eigenvalues --    1.70285   1.70734   1.71194   1.71617   1.71916
  Beta virt. eigenvalues --    1.72711   1.73652   1.73748   1.74266   1.74900
  Beta virt. eigenvalues --    1.75459   1.75952   1.76608   1.77046   1.77391
  Beta virt. eigenvalues --    1.77658   1.78105   1.78885   1.79014   1.79771
  Beta virt. eigenvalues --    1.79951   1.80590   1.80915   1.81465   1.81588
  Beta virt. eigenvalues --    1.82097   1.82701   1.83594   1.84229   1.84760
  Beta virt. eigenvalues --    1.86078   1.86724   1.87520   1.87656   1.89064
  Beta virt. eigenvalues --    1.89309   1.90234   1.90657   1.91406   1.91592
  Beta virt. eigenvalues --    1.91954   1.92292   1.92713   1.93362   1.94201
  Beta virt. eigenvalues --    1.94938   1.95229   1.95850   1.96264   1.97632
  Beta virt. eigenvalues --    1.98845   2.00378   2.01506   2.02323   2.02777
  Beta virt. eigenvalues --    2.03644   2.04224   2.04352   2.04835   2.05750
  Beta virt. eigenvalues --    2.06855   2.08069   2.08339   2.08667   2.09237
  Beta virt. eigenvalues --    2.09839   2.10472   2.10875   2.11500   2.12349
  Beta virt. eigenvalues --    2.12992   2.13675   2.14284   2.14890   2.14947
  Beta virt. eigenvalues --    2.15710   2.15993   2.16584   2.17731   2.18447
  Beta virt. eigenvalues --    2.19532   2.19716   2.21316   2.23009   2.23524
  Beta virt. eigenvalues --    2.24291   2.25520   2.26990   2.28960   2.29563
  Beta virt. eigenvalues --    2.30166   2.30783   2.31239   2.31379   2.31786
  Beta virt. eigenvalues --    2.34063   2.35332   2.36018   2.36828   2.37196
  Beta virt. eigenvalues --    2.37652   2.38532   2.38946   2.40556   2.40913
  Beta virt. eigenvalues --    2.41529   2.41881   2.42953   2.44278   2.44817
  Beta virt. eigenvalues --    2.45118   2.45685   2.45866   2.46151   2.48144
  Beta virt. eigenvalues --    2.48525   2.48927   2.49307   2.50437   2.51161
  Beta virt. eigenvalues --    2.52103   2.52833   2.53285   2.53589   2.54363
  Beta virt. eigenvalues --    2.55914   2.56372   2.56645   2.57159   2.58483
  Beta virt. eigenvalues --    2.59237   2.59509   2.60172   2.60358   2.61017
  Beta virt. eigenvalues --    2.61583   2.62228   2.62830   2.63743   2.64040
  Beta virt. eigenvalues --    2.65364   2.65667   2.66159   2.66543   2.67124
  Beta virt. eigenvalues --    2.67192   2.68103   2.68904   2.70144   2.70463
  Beta virt. eigenvalues --    2.70989   2.72030   2.72392   2.73256   2.73592
  Beta virt. eigenvalues --    2.74113   2.74706   2.75645   2.76111   2.76716
  Beta virt. eigenvalues --    2.77862   2.78646   2.79638   2.80604   2.80849
  Beta virt. eigenvalues --    2.82044   2.82450   2.82864   2.83373   2.83724
  Beta virt. eigenvalues --    2.84156   2.84616   2.85000   2.85569   2.85972
  Beta virt. eigenvalues --    2.86301   2.86670   2.87823   2.87929   2.88404
  Beta virt. eigenvalues --    2.88844   2.89703   2.90471   2.91364   2.92398
  Beta virt. eigenvalues --    2.93022   2.94011   2.94330   2.94427   2.95997
  Beta virt. eigenvalues --    2.96301   2.96830   2.97483   2.98389   2.99063
  Beta virt. eigenvalues --    2.99326   3.00118   3.01839   3.02845   3.03732
  Beta virt. eigenvalues --    3.04926   3.05616   3.06540   3.06880   3.08845
  Beta virt. eigenvalues --    3.09779   3.10488   3.11647   3.12748   3.13677
  Beta virt. eigenvalues --    3.14802   3.16526   3.17816   3.18314   3.19904
  Beta virt. eigenvalues --    3.21041   3.21817   3.22493   3.25907   3.28380
  Beta virt. eigenvalues --    3.28537   3.33006   3.33713   3.34510   3.35170
  Beta virt. eigenvalues --    3.35618   3.37163   3.40423   3.42641   3.43733
  Beta virt. eigenvalues --    3.46488   3.49803   3.52367   3.53361   3.54422
  Beta virt. eigenvalues --    3.54911   3.55998   3.56944   3.57294   3.58462
  Beta virt. eigenvalues --    3.59689   3.59825   3.60716   3.63800   3.65450
  Beta virt. eigenvalues --    3.70297   3.75173   3.76439   3.78047   3.79101
  Beta virt. eigenvalues --    3.79486   3.81422   3.83014   3.84074   3.84944
  Beta virt. eigenvalues --    3.85312   3.86410   3.88941   3.90171   3.90738
  Beta virt. eigenvalues --    3.91309   3.94474   3.95482   3.96090   3.96366
  Beta virt. eigenvalues --    3.98573   4.03904   4.04372   4.06166   4.09521
  Beta virt. eigenvalues --    4.11844   4.13273   4.14589   4.14837   4.15840
  Beta virt. eigenvalues --    4.16624   4.21287   4.21899   4.22968   4.29776
  Beta virt. eigenvalues --    4.33146   4.36228   4.38648   4.58409   4.59226
  Beta virt. eigenvalues --    4.60538   4.70788   4.72218   4.74457   4.83352
  Beta virt. eigenvalues --    4.85075   4.93437   4.99157   5.04928   5.10382
  Beta virt. eigenvalues --    5.19698   5.36048   5.50165   6.25077   6.26810
  Beta virt. eigenvalues --    6.40959   6.65301   6.82994   8.48073   8.52991
  Beta virt. eigenvalues --    8.59081  23.57768  23.72050  23.72834  23.75531
  Beta virt. eigenvalues --   23.76475  23.77323  23.79046  23.79577  23.79783
  Beta virt. eigenvalues --   23.79996  23.82128  23.83508  23.85162  23.86180
  Beta virt. eigenvalues --   23.86362  23.88956  23.89489  23.90276  23.91084
  Beta virt. eigenvalues --   23.93089  23.94761  24.00046  24.02645  24.04080
  Beta virt. eigenvalues --   24.05541  24.07969  28.18028  34.02493  34.04822
  Beta virt. eigenvalues --   34.09890  35.51556  35.57479  35.58607  35.61695
  Beta virt. eigenvalues --   35.63067  35.64593  49.88665 153.72628 804.78341
          Condensed to atoms (all electrons):
          Atomic-Atomic Spin Densities.
 Mulliken charges and spin densities:
               1          2
     1  O   -0.384984  -0.005694
     2  H    0.253941   0.006068
     3  H    0.285036   0.006430
     4  Co  -2.810870   0.999697
     5  N    0.453033   0.007608
     6  C    0.603804  -0.027693
     7  C   -0.771508   0.000476
     8  C   -0.534983  -0.000104
     9  C    0.046611  -0.035439
    10  C   -0.024769   0.012059
    11  C    0.445131  -0.017636
    12  N    0.820838   0.000185
    13  C    0.046969  -0.005873
    14  C   -0.510498   0.000701
    15  C   -0.801207   0.001172
    16  C   -0.064142  -0.010134
    17  N    0.695008   0.001864
    18  C    0.367983  -0.009072
    19  C   -0.762206   0.001070
    20  C   -0.620121  -0.000195
    21  C    0.176458   0.011380
    22  C    0.123524  -0.019238
    23  N    0.460422   0.007222
    24  C    0.319147  -0.021194
    25  C   -0.606798  -0.001802
    26  C   -0.390994   0.003327
    27  C   -0.054933   0.011788
    28  C    0.284068   0.003071
    29  C    0.530135   0.001298
    30  N    0.221410   0.086615
    31  C    0.038864   0.000772
    32  N   -0.196853  -0.000124
    33  C   -0.567192  -0.004570
    34  C   -0.396815  -0.000579
    35  C   -0.123563   0.001167
    36  C   -1.135666   0.000518
    37  H    0.199740   0.000391
    38  H    0.214874   0.000696
    39  H    0.142399  -0.000598
    40  H    0.141248  -0.000499
    41  H    0.143415  -0.000637
    42  H    0.198543  -0.000021
    43  H    0.206140   0.000076
    44  H    0.236982  -0.001223
    45  H    0.209681  -0.000533
    46  H    0.228329  -0.000836
    47  H    0.229768  -0.000749
    48  H    0.215488  -0.000691
    49  H    0.210219   0.000024
    50  H    0.204836  -0.000088
    51  H    0.224081  -0.000996
    52  H    0.209611  -0.000089
    53  H    0.219082  -0.000049
    54  H    0.231820  -0.000789
    55  H    0.239949  -0.001424
    56  H    0.219516  -0.000285
    57  H    0.219730  -0.000885
    58  H    0.205548   0.001292
    59  H    0.398521   0.001882
    60  H    0.210869   0.000263
    61  H    0.140774   0.000028
    62  H    0.151355  -0.000036
    63  H    0.133199   0.000636
 Sum of Mulliken charges =   1.00000   1.00000
 Mulliken charges and spin densities with hydrogens summed into heavy atoms:
               1          2
     1  O    0.153993   0.006804
     4  Co  -2.810870   0.999697
     5  N    0.453033   0.007608
     6  C    0.603804  -0.027693
     7  C   -0.320172  -0.000599
     8  C   -0.078272  -0.002212
     9  C    0.046611  -0.035439
    10  C    0.118646   0.011423
    11  C    0.445131  -0.017636
    12  N    0.820838   0.000185
    13  C    0.246709  -0.005482
    14  C   -0.095443   0.000637
    15  C   -0.367515   0.000088
    16  C    0.150732  -0.009438
    17  N    0.695008   0.001864
    18  C    0.367983  -0.009072
    19  C   -0.322757  -0.000212
    20  C   -0.215437  -0.000141
    21  C    0.318857   0.010782
    22  C    0.123524  -0.019238
    23  N    0.460422   0.007222
    24  C    0.319147  -0.021194
    25  C   -0.159387  -0.002688
    26  C    0.064443   0.001212
    27  C    0.086315   0.011289
    28  C    0.284068   0.003071
    29  C    0.530135   0.001298
    30  N    0.221410   0.086615
    31  C    0.244412   0.002064
    32  N    0.201669   0.001758
    33  C   -0.356323  -0.004307
    34  C   -0.256041  -0.000552
    35  C    0.027791   0.001131
    36  C   -1.002467   0.001154
 Electronic spatial extent (au):  <R**2>=          11753.3713
 Charge=              1.0000 electrons
 Dipole moment (field-independent basis, Debye):
    X=              1.5670    Y=             -1.0462    Z=              0.5568  Tot=              1.9647
 Quadrupole moment (field-independent basis, Debye-Ang):
   XX=           -162.8278   YY=           -163.5529   ZZ=           -150.4168
   XY=             -3.8298   XZ=              7.0980   YZ=             -0.8972
 Traceless Quadrupole moment (field-independent basis, Debye-Ang):
   XX=             -3.8953   YY=             -4.6204   ZZ=              8.5157
   XY=             -3.8298   XZ=              7.0980   YZ=             -0.8972
 Octapole moment (field-independent basis, Debye-Ang**2):
  XXX=             31.7857  YYY=              5.1280  ZZZ=             30.2875  XYY=             53.2097
  XXY=            -10.3927  XXZ=             16.9088  XZZ=            -27.8899  YZZ=            -36.7095
  YYZ=            -36.6121  XYZ=              7.5072
 Hexadecapole moment (field-independent basis, Debye-Ang**3):
 XXXX=          -5554.3078 YYYY=          -4623.2883 ZZZZ=          -3625.5345 XXXY=            -25.5117
 XXXZ=            -49.4924 YYYX=            -76.0003 YYYZ=              6.9092 ZZZX=           -120.7020
 ZZZY=            -90.2084 XXYY=          -1752.5933 XXZZ=          -1526.1131 YYZZ=          -1522.4864
 XXYZ=             12.2961 YYXZ=            110.6872 ZZXY=             39.9020
 N-N= 4.595339646121D+03 E-N=-1.574762372821D+04  KE= 2.788415968540D+03
                          Isotropic Fermi Contact Couplings
        Atom                 a.u.       MegaHertz       Gauss      10(-4) cm-1
     1  O(17)              0.06633     -40.20960     -14.34778     -13.41248
     2  H(1)               0.00003       0.11398       0.04067       0.03802
     3  H(1)              -0.00020      -0.88146      -0.31453      -0.29402
     4  Co(59)             0.09274      98.11233      35.00892      32.72675
     5  N(14)             -0.00390      -1.25985      -0.44955      -0.42024
     6  C(13)             -0.00170      -1.91377      -0.68288      -0.63837
     7  C(13)              0.00023       0.25945       0.09258       0.08654
     8  C(13)              0.00058       0.65474       0.23363       0.21840
     9  C(13)             -0.00275      -3.09254      -1.10349      -1.03156
    10  C(13)              0.00190       2.13540       0.76196       0.71229
    11  C(13)             -0.00136      -1.52701      -0.54487      -0.50936
    12  N(14)             -0.00224      -0.72412      -0.25838      -0.24154
    13  C(13)              0.00006       0.06322       0.02256       0.02109
    14  C(13)             -0.00006      -0.07168      -0.02558      -0.02391
    15  C(13)              0.00014       0.15391       0.05492       0.05134
    16  C(13)             -0.00013      -0.14861      -0.05303      -0.04957
    17  N(14)             -0.00393      -1.27069      -0.45341      -0.42386
    18  C(13)             -0.00104      -1.16586      -0.41601      -0.38889
    19  C(13)              0.00016       0.18041       0.06438       0.06018
    20  C(13)              0.00016       0.17584       0.06274       0.05865
    21  C(13)              0.00192       2.16299       0.77181       0.72149
    22  C(13)             -0.00270      -3.03297      -1.08224      -1.01169
    23  N(14)             -0.00195      -0.63066      -0.22504      -0.21037
    24  C(13)             -0.00134      -1.50625      -0.53747      -0.50243
    25  C(13)              0.00042       0.47062       0.16793       0.15698
    26  C(13)              0.00055       0.61354       0.21893       0.20466
    27  C(13)              0.00155       1.74141       0.62138       0.58087
    28  C(13)              0.00416       4.67368       1.66768       1.55897
    29  C(13)              0.00401       4.51139       1.60978       1.50484
    30  N(14)              0.15775      50.96910      18.18704      17.00146
    31  C(13)              0.00381       4.28714       1.52976       1.43004
    32  N(14)              0.00877       2.83304       1.01090       0.94500
    33  C(13)              0.00025       0.27978       0.09983       0.09333
    34  C(13)             -0.00013      -0.14260      -0.05088      -0.04756
    35  C(13)              0.00010       0.11621       0.04147       0.03876
    36  C(13)              0.00054       0.60249       0.21498       0.20097
    37  H(1)               0.00015       0.67948       0.24246       0.22665
    38  H(1)               0.00025       1.09625       0.39117       0.36567
    39  H(1)              -0.00009      -0.42223      -0.15066      -0.14084
    40  H(1)              -0.00009      -0.38185      -0.13625      -0.12737
    41  H(1)              -0.00011      -0.48849      -0.17430      -0.16294
    42  H(1)              -0.00001      -0.03807      -0.01358      -0.01270
    43  H(1)              -0.00001      -0.02524      -0.00901      -0.00842
    44  H(1)              -0.00059      -2.65933      -0.94891      -0.88706
    45  H(1)              -0.00026      -1.15437      -0.41191      -0.38506
    46  H(1)              -0.00038      -1.68891      -0.60265      -0.56336
    47  H(1)              -0.00038      -1.68834      -0.60244      -0.56317
    48  H(1)              -0.00035      -1.58398      -0.56520      -0.52836
    49  H(1)               0.00001       0.05221       0.01863       0.01741
    50  H(1)              -0.00004      -0.17262      -0.06160      -0.05758
    51  H(1)              -0.00047      -2.08389      -0.74358      -0.69511
    52  H(1)              -0.00009      -0.42210      -0.15061      -0.14080
    53  H(1)              -0.00011      -0.47017      -0.16777      -0.15683
    54  H(1)              -0.00037      -1.66101      -0.59269      -0.55405
    55  H(1)              -0.00066      -2.92944      -1.04530      -0.97716
    56  H(1)              -0.00020      -0.89578      -0.31964      -0.29880
    57  H(1)              -0.00045      -2.02507      -0.72260      -0.67549
    58  H(1)               0.00029       1.29903       0.46353       0.43331
    59  H(1)               0.00056       2.51090       0.89595       0.83755
    60  H(1)               0.00018       0.79647       0.28420       0.26567
    61  H(1)               0.00000      -0.00336      -0.00120      -0.00112
    62  H(1)              -0.00001      -0.04508      -0.01609      -0.01504
    63  H(1)               0.00029       1.30637       0.46615       0.43576
 --------------------------------------------------------
       Center         ----  Spin Dipole Couplings  ----
                      3XX-RR        3YY-RR        3ZZ-RR
 --------------------------------------------------------
     1   Atom       -0.009951     -0.041958      0.051909
     2   Atom        0.001788     -0.004825      0.003037
     3   Atom       -0.005428     -0.009462      0.014890
     4   Atom       -0.073243     -1.415187      1.488430
     5   Atom        0.007133     -0.000952     -0.006181
     6   Atom        0.003180      0.006390     -0.009570
     7   Atom        0.000586      0.000348     -0.000934
     8   Atom       -0.001130      0.002599     -0.001469
     9   Atom       -0.003093      0.021953     -0.018860
    10   Atom        0.005492     -0.009501      0.004009
    11   Atom        0.002333      0.004230     -0.006563
    12   Atom        0.011472     -0.013243      0.001770
    13   Atom       -0.002327      0.006560     -0.004233
    14   Atom       -0.000715      0.001630     -0.000915
    15   Atom        0.001061     -0.000987     -0.000074
    16   Atom       -0.004619      0.009603     -0.004984
    17   Atom       -0.000293     -0.001576      0.001869
    18   Atom       -0.001701      0.008399     -0.006698
    19   Atom       -0.000094      0.000816     -0.000722
    20   Atom       -0.001605      0.003446     -0.001841
    21   Atom       -0.004384      0.003312      0.001072
    22   Atom       -0.004880      0.017302     -0.012422
    23   Atom       -0.004742     -0.011363      0.016105
    24   Atom       -0.000185      0.001982     -0.001797
    25   Atom        0.000568     -0.001298      0.000730
    26   Atom       -0.000509      0.001002     -0.000494
    27   Atom        0.004400     -0.007318      0.002918
    28   Atom       -0.002209     -0.004262      0.006471
    29   Atom        0.014408     -0.011869     -0.002539
    30   Atom       -0.041252     -0.072955      0.114207
    31   Atom        0.002091     -0.017402      0.015311
    32   Atom        0.001531     -0.009865      0.008334
    33   Atom        0.004912     -0.002637     -0.002275
    34   Atom        0.002451     -0.002152     -0.000299
    35   Atom        0.000882     -0.000524     -0.000358
    36   Atom        0.001546     -0.002155      0.000609
    37   Atom       -0.001505      0.005600     -0.004096
    38   Atom       -0.003418      0.005835     -0.002417
    39   Atom       -0.001954      0.003402     -0.001447
    40   Atom        0.001130     -0.001726      0.000596
    41   Atom        0.002272     -0.002281      0.000009
    42   Atom       -0.001696      0.002976     -0.001280
    43   Atom       -0.000946      0.002092     -0.001146
    44   Atom       -0.000954      0.001856     -0.000902
    45   Atom       -0.000323      0.000835     -0.000512
    46   Atom       -0.000148     -0.000939      0.001087
    47   Atom        0.000232      0.000849     -0.001081
    48   Atom       -0.000461      0.000504     -0.000043
    49   Atom       -0.001271      0.001227      0.000044
    50   Atom       -0.000439      0.001206     -0.000768
    51   Atom        0.001274     -0.000403     -0.000871
    52   Atom        0.000485     -0.000506      0.000021
    53   Atom        0.000724     -0.000856      0.000132
    54   Atom        0.000670      0.000281     -0.000951
    55   Atom        0.000173      0.000499     -0.000672
    56   Atom        0.000138      0.000288     -0.000426
    57   Atom       -0.000534      0.001539     -0.001005
    58   Atom       -0.003312     -0.004590      0.007902
    59   Atom       -0.000826     -0.001369      0.002195
    60   Atom        0.006767     -0.003704     -0.003063
    61   Atom        0.001450     -0.000795     -0.000656
    62   Atom        0.000651     -0.000482     -0.000169
    63   Atom        0.000161     -0.000659      0.000498
 --------------------------------------------------------
                        XY            XZ            YZ
 --------------------------------------------------------
     1   Atom        0.046311     -0.090558     -0.062718
     2   Atom       -0.004847     -0.011413      0.002477
     3   Atom        0.000389     -0.000137     -0.005091
     4   Atom        0.314965     -1.777736     -0.396685
     5   Atom       -0.017689     -0.011618      0.002871
     6   Atom       -0.007015      0.014975     -0.000980
     7   Atom       -0.002053      0.000934     -0.000994
     8   Atom       -0.001326      0.000103     -0.000349
     9   Atom       -0.003513      0.018478     -0.000664
    10   Atom       -0.000785     -0.002037     -0.001703
    11   Atom        0.002837      0.018585      0.002102
    12   Atom        0.012762     -0.001746      0.003359
    13   Atom        0.005687      0.001168      0.004081
    14   Atom        0.002268      0.000837      0.001911
    15   Atom        0.001277      0.001661      0.000932
    16   Atom       -0.003868     -0.001347      0.000779
    17   Atom       -0.003268     -0.008548     -0.016738
    18   Atom       -0.008870      0.016768     -0.000923
    19   Atom       -0.001888      0.000834     -0.001235
    20   Atom       -0.001119     -0.000267     -0.000561
    21   Atom        0.001490     -0.007225      0.002731
    22   Atom        0.003858      0.021960      0.006199
    23   Atom        0.007053      0.001294      0.012660
    24   Atom       -0.000072      0.017806      0.002506
    25   Atom        0.001057      0.002162      0.001204
    26   Atom        0.001622      0.001023      0.001679
    27   Atom       -0.001622     -0.000361     -0.003650
    28   Atom        0.000658     -0.004430     -0.001737
    29   Atom       -0.000190     -0.010372     -0.001010
    30   Atom        0.019448     -0.115765     -0.027353
    31   Atom       -0.001945      0.004213     -0.006342
    32   Atom       -0.000276     -0.004952     -0.002760
    33   Atom       -0.000256     -0.001379     -0.000004
    34   Atom       -0.000151     -0.000927     -0.000325
    35   Atom        0.000072     -0.000891      0.000027
    36   Atom        0.000075     -0.002192     -0.000328
    37   Atom        0.005395     -0.000638     -0.000816
    38   Atom       -0.002831     -0.001529      0.004265
    39   Atom        0.000710     -0.000415      0.001119
    40   Atom       -0.001162      0.002224     -0.001190
    41   Atom       -0.000577      0.002237     -0.000448
    42   Atom       -0.000265     -0.000025     -0.001141
    43   Atom       -0.000780     -0.000082      0.000012
    44   Atom       -0.000849      0.000207     -0.000810
    45   Atom       -0.001194      0.000629     -0.001123
    46   Atom        0.000632      0.001534      0.000962
    47   Atom       -0.001800      0.000483     -0.000578
    48   Atom        0.000956      0.000643      0.001156
    49   Atom        0.001265      0.000845      0.002218
    50   Atom        0.001337      0.000422      0.000908
    51   Atom        0.001527      0.001075      0.000574
    52   Atom        0.000943      0.001268      0.000822
    53   Atom        0.000713      0.001342      0.000524
    54   Atom       -0.001684      0.000483     -0.000448
    55   Atom        0.001523      0.000805      0.000932
    56   Atom       -0.001272      0.000794     -0.000987
    57   Atom       -0.001045     -0.000044     -0.000126
    58   Atom       -0.000696      0.003335     -0.002822
    59   Atom        0.000073     -0.000675     -0.000657
    60   Atom       -0.000754      0.000176     -0.000197
    61   Atom       -0.000080     -0.000387     -0.000003
    62   Atom        0.000031     -0.000584     -0.000019
    63   Atom        0.000102     -0.000859     -0.000169
 --------------------------------------------------------


 ---------------------------------------------------------------------------------
              Anisotropic Spin Dipole Couplings in Principal Axis System
 ---------------------------------------------------------------------------------

       Atom             a.u.   MegaHertz   Gauss  10(-4) cm-1        Axes

              Baa    -0.0755     5.461     1.948     1.821  0.7954 -0.5217  0.3086
     1 O(17)  Bbb    -0.0731     5.290     1.888     1.765  0.2753  0.7645  0.5829
              Bcc     0.1486   -10.750    -3.836    -3.586 -0.5400 -0.3787  0.7516
 
              Baa    -0.0099    -5.260    -1.877    -1.755  0.7185  0.4184  0.5555
     2 H(1)   Bbb    -0.0053    -2.833    -1.011    -0.945 -0.1498  0.8731 -0.4639
              Bcc     0.0152     8.093     2.888     2.700 -0.6792  0.2501  0.6900
 
              Baa    -0.0105    -5.607    -2.001    -1.870 -0.0696  0.9782  0.1957
     3 H(1)   Bbb    -0.0054    -2.884    -1.029    -0.962  0.9975  0.0663  0.0234
              Bcc     0.0159     8.491     3.030     2.832 -0.0099 -0.1968  0.9804
 
              Baa    -1.4854  -187.579   -66.933   -62.570 -0.2174  0.9761  0.0003
     4 Co(59) Bbb    -1.2255  -154.752   -55.219   -51.620  0.8105  0.1804  0.5573
              Bcc     2.7109   342.332   122.152   114.190 -0.5439 -0.1213  0.8303
 
              Baa    -0.0179    -0.691    -0.247    -0.231  0.6427  0.5867  0.4927
     5 N(14)  Bbb    -0.0072    -0.277    -0.099    -0.092 -0.0772 -0.5902  0.8036
              Bcc     0.0251     0.968     0.345     0.323  0.7622 -0.5545 -0.3341
 
              Baa    -0.0198    -2.663    -0.950    -0.888 -0.5669 -0.1212  0.8148
     6 C(13)  Bbb     0.0028     0.379     0.135     0.126  0.3746  0.8430  0.3860
              Bcc     0.0170     2.284     0.815     0.762  0.7337 -0.5241  0.4325
 
              Baa    -0.0016    -0.217    -0.077    -0.072  0.5674  0.7568  0.3245
     7 C(13)  Bbb    -0.0014    -0.185    -0.066    -0.062 -0.4597 -0.0358  0.8874
              Bcc     0.0030     0.402     0.143     0.134  0.6832 -0.6527  0.3276
 
              Baa    -0.0016    -0.209    -0.074    -0.070  0.9395  0.3119  0.1418
     8 C(13)  Bbb    -0.0015    -0.201    -0.072    -0.067 -0.1597  0.0325  0.9866
              Bcc     0.0031     0.409     0.146     0.137 -0.3031  0.9496 -0.0803
 
              Baa    -0.0311    -4.174    -1.489    -1.392 -0.5528 -0.0262  0.8329
     9 C(13)  Bbb     0.0083     1.116     0.398     0.372  0.8066  0.2343  0.5427
              Bcc     0.0228     3.057     1.091     1.020 -0.2093  0.9718 -0.1084
 
              Baa    -0.0098    -1.313    -0.468    -0.438  0.0685  0.9889  0.1322
    10 C(13)  Bbb     0.0029     0.383     0.137     0.128  0.5772 -0.1474  0.8032
              Bcc     0.0069     0.929     0.332     0.310  0.8137  0.0213 -0.5809
 
              Baa    -0.0212    -2.848    -1.016    -0.950 -0.6197  0.0042  0.7848
    11 C(13)  Bbb     0.0033     0.446     0.159     0.149 -0.1936  0.9683 -0.1581
              Bcc     0.0179     2.403     0.857     0.801  0.7606  0.2499  0.5992
 
              Baa    -0.0193    -0.745    -0.266    -0.249 -0.3853  0.9058 -0.1761
    12 N(14)  Bbb     0.0024     0.094     0.034     0.031 -0.0500  0.1701  0.9842
              Bcc     0.0169     0.651     0.232     0.217  0.9214  0.3880 -0.0202
 
              Baa    -0.0060    -0.804    -0.287    -0.268  0.4726 -0.4589  0.7524
    13 C(13)  Bbb    -0.0045    -0.608    -0.217    -0.203  0.7801 -0.1794 -0.5994
              Bcc     0.0105     1.412     0.504     0.471  0.4100  0.8702  0.2732
 
              Baa    -0.0022    -0.301    -0.108    -0.101  0.6441 -0.6066  0.4660
    14 C(13)  Bbb    -0.0017    -0.222    -0.079    -0.074 -0.6098 -0.0395  0.7916
              Bcc     0.0039     0.523     0.187     0.175  0.4618  0.7940  0.3954
 
              Baa    -0.0016    -0.219    -0.078    -0.073 -0.2846  0.9255 -0.2499
    15 C(13)  Bbb    -0.0013    -0.169    -0.060    -0.056 -0.5939  0.0344  0.8038
              Bcc     0.0029     0.388     0.139     0.130  0.7525  0.3772  0.5398
 
              Baa    -0.0065    -0.869    -0.310    -0.290  0.7721  0.1559  0.6161
    16 C(13)  Bbb    -0.0042    -0.562    -0.201    -0.187 -0.5840 -0.2081  0.7846
              Bcc     0.0107     1.431     0.511     0.477 -0.2505  0.9656  0.0696
 
              Baa    -0.0201    -0.776    -0.277    -0.259  0.3878  0.6544  0.6491
    17 N(14)  Bbb     0.0021     0.081     0.029     0.027  0.8885 -0.4528 -0.0744
              Bcc     0.0180     0.695     0.248     0.232 -0.2452 -0.6056  0.7571
 
              Baa    -0.0220    -2.959    -1.056    -0.987 -0.6702 -0.1734  0.7216
    18 C(13)  Bbb     0.0036     0.482     0.172     0.161  0.3633  0.7712  0.5227
              Bcc     0.0185     2.476     0.884     0.826  0.6472 -0.6125  0.4539
 
              Baa    -0.0016    -0.217    -0.077    -0.072  0.6684  0.6761  0.3101
    19 C(13)  Bbb    -0.0013    -0.174    -0.062    -0.058 -0.4833  0.0778  0.8720
              Bcc     0.0029     0.391     0.139     0.130 -0.5654  0.7327 -0.3788
 
              Baa    -0.0022    -0.301    -0.107    -0.100  0.6592  0.2013  0.7245
    20 C(13)  Bbb    -0.0015    -0.200    -0.071    -0.067  0.7247  0.0866 -0.6836
              Bcc     0.0037     0.500     0.178     0.167 -0.2004  0.9757 -0.0888
 
              Baa    -0.0100    -1.337    -0.477    -0.446  0.7944 -0.2066  0.5711
    21 C(13)  Bbb     0.0032     0.434     0.155     0.145  0.4064  0.8796 -0.2471
              Bcc     0.0067     0.903     0.322     0.301 -0.4513  0.4284  0.7828
 
              Baa    -0.0310    -4.165    -1.486    -1.389 -0.6381 -0.0476  0.7685
    22 C(13)  Bbb     0.0083     1.118     0.399     0.373  0.6299 -0.6063  0.4854
              Bcc     0.0227     3.047     1.087     1.017  0.4428  0.7938  0.4169
 
              Baa    -0.0190    -0.732    -0.261    -0.244 -0.4018  0.8660 -0.2976
    23 N(14)  Bbb    -0.0026    -0.101    -0.036    -0.034  0.9039  0.3229 -0.2807
              Bcc     0.0216     0.833     0.297     0.278  0.1470  0.3818  0.9125
 
              Baa    -0.0190    -2.547    -0.909    -0.850 -0.6852 -0.0888  0.7229
    24 C(13)  Bbb     0.0020     0.263     0.094     0.088 -0.1420  0.9898 -0.0131
              Bcc     0.0170     2.284     0.815     0.762  0.7144  0.1116  0.6908
 
              Baa    -0.0019    -0.250    -0.089    -0.083 -0.0776  0.9274 -0.3661
[...]
    49   Atom        0.001263      0.000845      0.002221
    50   Atom        0.001337      0.000423      0.000910
    51   Atom        0.001528      0.001077      0.000577
    52   Atom        0.000945      0.001270      0.000825
    53   Atom        0.000715      0.001345      0.000524
    54   Atom       -0.001686      0.000486     -0.000450
    55   Atom        0.001525      0.000807      0.000932
    56   Atom       -0.001274      0.000795     -0.000991
    57   Atom       -0.001045     -0.000043     -0.000131
    58   Atom       -0.000686      0.003313     -0.002814
    59   Atom        0.000064     -0.000619     -0.000667
    60   Atom       -0.000751      0.000168     -0.000193
    61   Atom       -0.000080     -0.000386     -0.000003
    62   Atom        0.000030     -0.000576     -0.000022
    63   Atom        0.000103     -0.000863     -0.000167
 --------------------------------------------------------


 ---------------------------------------------------------------------------------
              Anisotropic Spin Dipole Couplings in Principal Axis System
 ---------------------------------------------------------------------------------

       Atom             a.u.   MegaHertz   Gauss  10(-4) cm-1        Axes

              Baa    -0.0773     5.592     1.995     1.865  0.7952 -0.5222  0.3082
     1 O(17)  Bbb    -0.0754     5.452     1.946     1.819  0.2907  0.7744  0.5620
              Bcc     0.1526   -11.044    -3.941    -3.684 -0.5321 -0.3573  0.7676
 
              Baa    -0.0100    -5.313    -1.896    -1.772  0.7206  0.4143  0.5560
     2 H(1)   Bbb    -0.0051    -2.746    -0.980    -0.916 -0.1431  0.8734 -0.4654
              Bcc     0.0151     8.059     2.876     2.688 -0.6785  0.2558  0.6886
 
              Baa    -0.0106    -5.658    -2.019    -1.887 -0.0780  0.9781  0.1931
     3 H(1)   Bbb    -0.0052    -2.792    -0.996    -0.931  0.9969  0.0753  0.0216
              Bcc     0.0158     8.451     3.015     2.819 -0.0066 -0.1942  0.9809
 
              Baa    -1.4856  -187.601   -66.941   -62.577 -0.2242  0.9745 -0.0037
     4 Co(59) Bbb    -1.2263  -154.861   -55.258   -51.656  0.8090  0.1883  0.5569
              Bcc     2.7119   342.462   122.199   114.233 -0.5434 -0.1218  0.8306
 
              Baa    -0.0177    -0.681    -0.243    -0.227  0.6422  0.5866  0.4934
     5 N(14)  Bbb    -0.0070    -0.269    -0.096    -0.090 -0.0799 -0.5890  0.8042
              Bcc     0.0246     0.950     0.339     0.317  0.7623 -0.5559 -0.3314
 
              Baa    -0.0195    -2.623    -0.936    -0.875 -0.5657 -0.1210  0.8157
     6 C(13)  Bbb     0.0027     0.359     0.128     0.120  0.3760  0.8425  0.3858
              Bcc     0.0169     2.264     0.808     0.755  0.7339 -0.5250  0.4311
 
              Baa    -0.0016    -0.216    -0.077    -0.072  0.5766  0.7588  0.3030
     7 C(13)  Bbb    -0.0014    -0.185    -0.066    -0.062 -0.4469 -0.0176  0.8944
              Bcc     0.0030     0.401     0.143     0.134  0.6840 -0.6511  0.3289
 
              Baa    -0.0015    -0.208    -0.074    -0.069  0.9275  0.2729 -0.2553
     8 C(13)  Bbb    -0.0015    -0.201    -0.072    -0.067  0.2209  0.1509  0.9636
              Bcc     0.0030     0.409     0.146     0.136 -0.3015  0.9501 -0.0797
 
              Baa    -0.0308    -4.130    -1.474    -1.378 -0.5521 -0.0258  0.8334
     9 C(13)  Bbb     0.0082     1.096     0.391     0.365  0.8070  0.2349  0.5419
              Bcc     0.0226     3.034     1.083     1.012 -0.2097  0.9717 -0.1088
 
              Baa    -0.0096    -1.292    -0.461    -0.431  0.0675  0.9888  0.1334
    10 C(13)  Bbb     0.0030     0.402     0.143     0.134  0.5523 -0.1484  0.8203
              Bcc     0.0066     0.890     0.318     0.297  0.8309  0.0183 -0.5561
 
              Baa    -0.0211    -2.826    -1.008    -0.943 -0.6183  0.0029  0.7860
    11 C(13)  Bbb     0.0032     0.433     0.154     0.144 -0.1948  0.9682 -0.1568
              Bcc     0.0178     2.393     0.854     0.798  0.7614  0.2501  0.5981
 
              Baa    -0.0193    -0.746    -0.266    -0.249 -0.3836  0.9064 -0.1769
    12 N(14)  Bbb     0.0026     0.101     0.036     0.034 -0.0501  0.1709  0.9840
              Bcc     0.0167     0.645     0.230     0.215  0.9221  0.3863 -0.0202
 
              Baa    -0.0060    -0.806    -0.288    -0.269  0.4766 -0.4617  0.7481
    13 C(13)  Bbb    -0.0045    -0.608    -0.217    -0.203  0.7772 -0.1764 -0.6040
              Bcc     0.0105     1.414     0.505     0.472  0.4109  0.8693  0.2748
 
              Baa    -0.0022    -0.301    -0.107    -0.100  0.6478 -0.6071  0.4602
    14 C(13)  Bbb    -0.0017    -0.222    -0.079    -0.074 -0.6059 -0.0444  0.7943
              Bcc     0.0039     0.523     0.187     0.175  0.4618  0.7934  0.3966
 
              Baa    -0.0016    -0.219    -0.078    -0.073 -0.2913  0.9259 -0.2405
    15 C(13)  Bbb    -0.0013    -0.169    -0.060    -0.056 -0.5903  0.0239  0.8069
              Bcc     0.0029     0.388     0.138     0.129  0.7528  0.3770  0.5396
 
              Baa    -0.0065    -0.871    -0.311    -0.290  0.7720  0.1558  0.6162
    16 C(13)  Bbb    -0.0042    -0.563    -0.201    -0.188 -0.5841 -0.2082  0.7845
              Bcc     0.0107     1.434     0.512     0.478 -0.2505  0.9656  0.0698
 
              Baa    -0.0200    -0.772    -0.276    -0.258  0.3885  0.6549  0.6482
    17 N(14)  Bbb     0.0023     0.089     0.032     0.030  0.8903 -0.4481 -0.0808
              Bcc     0.0177     0.683     0.244     0.228 -0.2375 -0.6085  0.7572
 
              Baa    -0.0217    -2.917    -1.041    -0.973 -0.6700 -0.1741  0.7216
    18 C(13)  Bbb     0.0034     0.461     0.165     0.154  0.3628  0.7713  0.5230
              Bcc     0.0183     2.456     0.876     0.819  0.6477 -0.6122  0.4536
 
              Baa    -0.0016    -0.216    -0.077    -0.072  0.6648  0.6782  0.3133
    19 C(13)  Bbb    -0.0013    -0.172    -0.061    -0.057 -0.4860  0.0741  0.8708
              Bcc     0.0029     0.388     0.138     0.129 -0.5674  0.7311 -0.3788
 
              Baa    -0.0022    -0.300    -0.107    -0.100  0.6608  0.2017  0.7230
    20 C(13)  Bbb    -0.0015    -0.200    -0.071    -0.067  0.7231  0.0870 -0.6852
              Bcc     0.0037     0.500     0.178     0.167 -0.2011  0.9756 -0.0883
 
              Baa    -0.0098    -1.309    -0.467    -0.436  0.7944 -0.2064  0.5713
    21 C(13)  Bbb     0.0033     0.443     0.158     0.148  0.4414  0.8422 -0.3095
              Bcc     0.0065     0.866     0.309     0.289 -0.4173  0.4980  0.7602
 
              Baa    -0.0307    -4.119    -1.470    -1.374 -0.6382 -0.0467  0.7685
    22 C(13)  Bbb     0.0082     1.094     0.390     0.365  0.6297 -0.6058  0.4862
              Bcc     0.0225     3.025     1.079     1.009  0.4429  0.7942  0.4160
 
              Baa    -0.0188    -0.727    -0.259    -0.242 -0.4025  0.8655 -0.2981
    23 N(14)  Bbb    -0.0026    -0.100    -0.036    -0.033  0.9012  0.3177 -0.2947
              Bcc     0.0214     0.827     0.295     0.276  0.1604  0.3873  0.9079
 
              Baa    -0.0187    -2.514    -0.897    -0.839 -0.6862 -0.0873  0.7222
    24 C(13)  Bbb     0.0018     0.247     0.088     0.082 -0.1411  0.9899 -0.0144
              Bcc     0.0169     2.267     0.809     0.756  0.7136  0.1118  0.6916
 
              Baa    -0.0018    -0.248    -0.089    -0.083 -0.0740  0.9270 -0.3677
    25 C(13)  Bbb    -0.0015    -0.202    -0.072    -0.067  0.7510 -0.1907 -0.6321
              Bcc     0.0034     0.450     0.161     0.150  0.6561  0.3230  0.6821
 
              Baa    -0.0016    -0.213    -0.076    -0.071  0.1824 -0.6103  0.7709
    26 C(13)  Bbb    -0.0015    -0.204    -0.073    -0.068  0.8641 -0.2747 -0.4219
              Bcc     0.0031     0.417     0.149     0.139  0.4692  0.7431  0.4772
 
              Baa    -0.0086    -1.157    -0.413    -0.386  0.1256  0.9453  0.3009
    27 C(13)  Bbb     0.0039     0.528     0.188     0.176 -0.3617 -0.2388  0.9012
              Bcc     0.0047     0.629     0.225     0.210  0.9238 -0.2221  0.3119
 
              Baa    -0.0047    -0.627    -0.224    -0.209  0.0666  0.9818  0.1779
    28 C(13)  Bbb    -0.0038    -0.505    -0.180    -0.168  0.9196 -0.1296  0.3709
              Bcc     0.0084     1.132     0.404     0.378 -0.3872 -0.1389  0.9115
 
              Baa    -0.0119    -1.603    -0.572    -0.535  0.0846  0.9773  0.1941
    29 C(13)  Bbb    -0.0072    -0.966    -0.345    -0.322  0.4085 -0.2117  0.8878
              Bcc     0.0191     2.568     0.916     0.857  0.9088  0.0042 -0.4172
 
              Baa    -0.1011    -3.901    -1.392    -1.301  0.8824 -0.1581  0.4432
    30 N(14)  Bbb    -0.0754    -2.908    -1.038    -0.970  0.0803  0.9786  0.1892
              Bcc     0.1765     6.809     2.430     2.271 -0.4636 -0.1314  0.8762
 
              Baa    -0.0180    -2.416    -0.862    -0.806  0.0541  0.9831  0.1750
    31 C(13)  Bbb     0.0005     0.071     0.025     0.024  0.9654 -0.0068 -0.2606
              Bcc     0.0175     2.345     0.837     0.782  0.2550 -0.1830  0.9495
 
              Baa    -0.0099    -0.383    -0.137    -0.128  0.0934  0.9816  0.1666
    32 N(14)  Bbb    -0.0015    -0.057    -0.020    -0.019  0.9017 -0.1543  0.4038
              Bcc     0.0114     0.439     0.157     0.146 -0.4221 -0.1125  0.8995
 
              Baa    -0.0027    -0.367    -0.131    -0.122  0.0839  0.9565  0.2794
    33 C(13)  Bbb    -0.0025    -0.336    -0.120    -0.112  0.1714 -0.2901  0.9415
              Bcc     0.0052     0.703     0.251     0.235  0.9816 -0.0311 -0.1882
 
              Baa    -0.0022    -0.289    -0.103    -0.096  0.0708  0.9771  0.2008
    34 C(13)  Bbb    -0.0005    -0.073    -0.026    -0.024  0.2813 -0.2127  0.9358
              Bcc     0.0027     0.362     0.129     0.121  0.9570 -0.0098 -0.2899
 
              Baa    -0.0008    -0.101    -0.036    -0.034  0.4645 -0.0318  0.8850
    35 C(13)  Bbb    -0.0007    -0.093    -0.033    -0.031 -0.0088  0.9991  0.0405
              Bcc     0.0014     0.194     0.069     0.065  0.8855  0.0266 -0.4639
 
              Baa    -0.0020    -0.272    -0.097    -0.091  0.0883  0.9794  0.1817
    36 C(13)  Bbb    -0.0012    -0.157    -0.056    -0.052  0.6196 -0.1968  0.7598
              Bcc     0.0032     0.429     0.153     0.143  0.7799  0.0456 -0.6242
 
              Baa    -0.0045    -2.408    -0.859    -0.803  0.7945 -0.3865  0.4684
    37 H(1)   Bbb    -0.0041    -2.181    -0.778    -0.727 -0.3800  0.2852  0.8799
              Bcc     0.0086     4.588     1.637     1.531  0.4737  0.8771 -0.0797
 
              Baa    -0.0045    -2.425    -0.865    -0.809  0.7136 -0.0911  0.6946
    38 H(1)   Bbb    -0.0040    -2.117    -0.755    -0.706  0.6505  0.4543 -0.6087
              Bcc     0.0085     4.542     1.621     1.515 -0.2601  0.8862  0.3834
 
              Baa    -0.0024    -1.285    -0.459    -0.429  0.7965 -0.2058  0.5685
    39 H(1)   Bbb    -0.0013    -0.683    -0.244    -0.228 -0.5950 -0.0994  0.7976
              Bcc     0.0037     1.968     0.702     0.656  0.1077  0.9735  0.2016
 
              Baa    -0.0022    -1.199    -0.428    -0.400  0.1342  0.9476  0.2900
    40 H(1)   Bbb    -0.0014    -0.730    -0.260    -0.243 -0.6909 -0.1203  0.7128
              Bcc     0.0036     1.929     0.688     0.643  0.7104 -0.2960  0.6386
 
              Baa    -0.0024    -1.257    -0.449    -0.419  0.0608  0.9896  0.1300
    41 H(1)   Bbb    -0.0014    -0.727    -0.260    -0.243 -0.5318 -0.0781  0.8433
              Bcc     0.0037     1.985     0.708     0.662  0.8447 -0.1204  0.5215
 
              Baa    -0.0018    -0.935    -0.334    -0.312  0.8988  0.1499  0.4119
    42 H(1)   Bbb    -0.0015    -0.814    -0.290    -0.271 -0.4353  0.1964  0.8786
              Bcc     0.0033     1.749     0.624     0.583 -0.0508  0.9690 -0.2418
 
              Baa    -0.0012    -0.650    -0.232    -0.217  0.6619  0.1530  0.7338
    43 H(1)   Bbb    -0.0011    -0.568    -0.203    -0.189  0.7116  0.1793 -0.6793
              Bcc     0.0023     1.218     0.435     0.406 -0.2355  0.9718  0.0099
 
              Baa    -0.0012    -0.639    -0.228    -0.213  0.9372  0.3057  0.1678
    44 H(1)   Bbb    -0.0011    -0.596    -0.213    -0.199 -0.2334  0.1925  0.9531
              Bcc     0.0023     1.235     0.441     0.412 -0.2591  0.9325 -0.2518
 
              Baa    -0.0012    -0.620    -0.221    -0.207  0.2593  0.5863  0.7675
    45 H(1)   Bbb    -0.0010    -0.553    -0.197    -0.185  0.8422  0.2517 -0.4768
              Bcc     0.0022     1.173     0.419     0.391 -0.4727  0.7700 -0.4285
 
              Baa    -0.0013    -0.708    -0.252    -0.236 -0.0803  0.9421 -0.3256
    46 H(1)   Bbb    -0.0012    -0.633    -0.226    -0.211  0.8441 -0.1095 -0.5248
              Bcc     0.0025     1.341     0.478     0.447  0.5301  0.3170  0.7865
 
              Baa    -0.0013    -0.687    -0.245    -0.229  0.7592  0.6499  0.0353
    47 H(1)   Bbb    -0.0012    -0.662    -0.236    -0.221 -0.1586  0.1322  0.9784
              Bcc     0.0025     1.348     0.481     0.450 -0.6312  0.7485 -0.2035
 
              Baa    -0.0011    -0.571    -0.204    -0.190  0.7292 -0.6340  0.2575
    48 H(1)   Bbb    -0.0009    -0.480    -0.171    -0.160 -0.5332 -0.2905  0.7946
              Bcc     0.0020     1.050     0.375     0.350  0.4290  0.7167  0.5499
 
              Baa    -0.0018    -0.971    -0.346    -0.324  0.8158 -0.5211  0.2508
    49 H(1)   Bbb    -0.0016    -0.856    -0.306    -0.286 -0.4899 -0.3922  0.7786
              Bcc     0.0034     1.827     0.652     0.609  0.3073  0.7580  0.5753
 
              Baa    -0.0012    -0.654    -0.233    -0.218  0.6961 -0.5534  0.4574
    50 H(1)   Bbb    -0.0011    -0.564    -0.201    -0.188 -0.5534 -0.0078  0.8329
              Bcc     0.0023     1.218     0.435     0.406  0.4574  0.8329  0.3117
 
              Baa    -0.0014    -0.722    -0.258    -0.241 -0.5656  0.5224  0.6381
    51 H(1)   Bbb    -0.0013    -0.669    -0.239    -0.223 -0.1312  0.7069 -0.6950
              Bcc     0.0026     1.390     0.496     0.464  0.8142  0.4768  0.3313
 
              Baa    -0.0011    -0.592    -0.211    -0.198 -0.0981  0.8536 -0.5117
    52 H(1)   Bbb    -0.0010    -0.549    -0.196    -0.183  0.7158 -0.2966 -0.6322
              Bcc     0.0021     1.141     0.407     0.381  0.6914  0.4283  0.5819
 
              Baa    -0.0011    -0.604    -0.215    -0.201 -0.3464  0.9379 -0.0207
    53 H(1)   Bbb    -0.0009    -0.502    -0.179    -0.168 -0.5653 -0.1911  0.8024
              Bcc     0.0021     1.106     0.395     0.369  0.7486  0.2896  0.5964
 
              Baa    -0.0012    -0.652    -0.233    -0.217  0.6506  0.7545  0.0865
    54 H(1)   Bbb    -0.0011    -0.579    -0.207    -0.193 -0.2068  0.0663  0.9761
              Bcc     0.0023     1.231     0.439     0.411  0.7307 -0.6529  0.1992
 
              Baa    -0.0012    -0.645    -0.230    -0.215 -0.5129  0.7159 -0.4737
    55 H(1)   Bbb    -0.0012    -0.619    -0.221    -0.207 -0.5959  0.1003  0.7968
              Bcc     0.0024     1.265     0.451     0.422  0.6179  0.6910  0.3752
 
              Baa    -0.0012    -0.614    -0.219    -0.205  0.3152  0.7111  0.6285
    56 H(1)   Bbb    -0.0010    -0.517    -0.185    -0.173  0.7323  0.2390 -0.6377
              Bcc     0.0021     1.131     0.404     0.377 -0.6037  0.6612 -0.4454
 
              Baa    -0.0011    -0.578    -0.206    -0.193  0.5638  0.2636  0.7827
    57 H(1)   Bbb    -0.0009    -0.479    -0.171    -0.160  0.7317  0.2802 -0.6214
              Bcc     0.0020     1.057     0.377     0.353 -0.3831  0.9230 -0.0349
 
              Baa    -0.0052    -2.759    -0.984    -0.920 -0.0269  0.9758  0.2170
    58 H(1)   Bbb    -0.0042    -2.255    -0.805    -0.752  0.9661  0.0812 -0.2452
              Bcc     0.0094     5.014     1.789     1.673  0.2569 -0.2030  0.9449
 
              Baa    -0.0015    -0.792    -0.283    -0.264  0.0884  0.9775  0.1913
    59 H(1)   Bbb    -0.0010    -0.513    -0.183    -0.171  0.9787 -0.1210  0.1657
              Bcc     0.0024     1.305     0.466     0.435 -0.1851 -0.1726  0.9674
 
              Baa    -0.0038    -2.026    -0.723    -0.676  0.0648  0.9674  0.2447
    60 H(1)   Bbb    -0.0030    -1.620    -0.578    -0.540 -0.0351 -0.2428  0.9694
              Bcc     0.0068     3.646     1.301     1.216  0.9973 -0.0715  0.0183
 
              Baa    -0.0008    -0.426    -0.152    -0.142  0.0703  0.9755  0.2084
    61 H(1)   Bbb    -0.0007    -0.385    -0.137    -0.128  0.1632 -0.2174  0.9623
              Bcc     0.0015     0.811     0.289     0.270  0.9841 -0.0337 -0.1745
 
              Baa    -0.0005    -0.257    -0.092    -0.086  0.0896  0.9702  0.2250
    62 H(1)   Bbb    -0.0005    -0.245    -0.087    -0.082  0.4564 -0.2408  0.8566
              Bcc     0.0009     0.502     0.179     0.167  0.8853  0.0260 -0.4643
 
              Baa    -0.0007    -0.362    -0.129    -0.121  0.0965  0.9730  0.2098
    63 H(1)   Bbb    -0.0005    -0.292    -0.104    -0.098  0.7701 -0.2065  0.6036
              Bcc     0.0012     0.654     0.233     0.218 -0.6306 -0.1033  0.7692
 

 ---------------------------------------------------------------------------------

 1\1\GINC-NID01399\SP\UTPSSTPSS\Gen\C26H29Co1N6O1(1+,2)\PARKSJM\29-Oct-
 2015\0\\# tpsstpss chkbasis integral=ultrafine scf=tight geom=check sc
 rf=(smd,solvent=water, read)\\H2O.Co.2.Corrin.Bzm\\1,2\O,0,1.881541,0.
 515538,-2.574708\H,0,2.475907,-0.213145,-2.841515\H,0,1.226214,0.57305
 6,-3.29775\Co,0,0.573576,0.02505,-0.508247\N,0,1.623338,-1.525671,-0.0
 56476\C,0,2.778406,-1.525011,0.721749\C,0,3.324955,-2.933691,0.886074\
 C,0,2.220287,-3.819324,0.277469\C,0,1.283885,-2.811158,-0.361788\C,0,3
 .370248,-0.404445,1.264763\C,0,2.89908,0.917593,1.024596\N,0,1.819534,
 1.146657,0.303063\C,0,1.667232,2.606035,0.048984\C,0,2.441901,3.254597
 ,1.209468\C,0,3.558134,2.211688,1.476176\C,0,0.164749,2.825339,-0.1218
 66\N,0,-0.285033,1.634419,-0.895456\C,0,-1.201376,1.962242,-1.784575\C
 ,0,-1.518745,3.446976,-1.753\C,0,-0.318498,4.026271,-0.961861\C,0,0.19
 7909,-3.177058,-1.156557\C,0,-0.678518,-2.29652,-1.786886\N,0,-0.63557
 7,-0.939348,-1.653075\C,0,-1.548918,-0.362369,-2.531199\C,0,-2.208411,
 -1.422342,-3.397728\C,0,-1.797605,-2.738685,-2.709403\C,0,-1.81675,0.9
 86974,-2.621603\C,0,-2.168197,-0.441464,3.006441\C,0,-1.958103,-0.1992
 07,1.623622\N,0,-0.585431,-0.251424,1.342157\C,0,0.00009,-0.511189,2.5
 0321\N,0,-0.894192,-0.635967,3.530501\C,0,-3.058623,0.045042,0.784078\
 C,0,-4.329787,0.03618,1.361263\C,0,-4.519379,-0.208631,2.741309\C,0,-3
 .440236,-0.45268,3.593061\H,0,2.157532,2.818893,-0.915313\H,0,-0.32661
 5,2.792509,0.863866\H,0,0.043105,-4.240754,-1.326321\H,0,-2.549124,1.3
 19655,-3.353719\H,0,4.268804,-0.53589,1.863731\H,0,0.473496,4.334563,-
 1.658509\H,0,-0.588866,4.891733,-0.347699\H,0,1.682012,-4.394301,1.045
 166\H,0,-1.627448,3.875514,-2.757108\H,0,-1.811412,-1.368916,-4.422462
 \H,0,-2.471562,3.610003,-1.225062\H,0,-1.476811,-3.520069,-3.408285\H,
 0,1.7913,3.343791,2.091094\H,0,2.831888,4.248298,0.964024\H,0,4.451319
 ,2.411776,0.863138\H,0,3.885243,2.174163,2.522914\H,0,-3.29315,-1.2798
 96,-3.463628\H,0,4.272327,-3.031687,0.337175\H,0,-2.623375,-3.153941,-
 2.11206\H,0,3.538719,-3.166468,1.93633\H,0,2.599458,-4.542481,-0.45536
 2\H,0,1.068735,-0.616459,2.646562\H,0,-0.66239,-0.832641,4.498784\H,0,
 -2.921508,0.235025,-0.27716\H,0,-5.200686,0.222525,0.735222\H,0,-5.528
 21,-0.206602,3.149304\H,0,-3.584636,-0.640541,4.655191\\Version=AS64L-
 G09RevD.01\State=2-A\HF=-2795.4089209\S2=0.761728\S2-1=0.\S2A=0.750108
 \RMSD=8.327e-10\Dipole=1.1425052,-0.5719497,0.3998504\Quadrupole=-7.31
 69292,-4.0006665,11.3175957,-3.9278517,7.7378936,-1.0955092\PG=C01 [X(
 C26H29Co1N6O1)]\\@


 AN AIRPLANE IS A COLLECTION OF SPARE PARTS
 FLYING IN CLOSE FORMATION.
 Job cpu time:       0 days  0 hours  1 minutes 45.7 seconds.
 File lengths (MBytes):  RWF=   1140 Int=      0 D2E=      0 Chk=     58 Scr=      1
 Normal termination of Gaussian 09 at Thu Oct 29 12:03:41 2015.
