3
0 1 // H2O_c2v.bp86.631gs.opt.log // Final SCF Energy = -76.4073101878
O	0.000000	0.000000	0.121389
H	0.000000	0.766366	-0.485557
H	0.000000	-0.766366	-0.485557
