 Entering GApplication 60298433 resources: utime ~42s, stime ~2s, Rss ~151496, inblocks ~227791, outblocks ~34348
utput=/global/homes/p/parksjm/tpss/H2O_c2v/H2O_c2v.tpss.6311ppgdp.sp.log
 Initial command:
 /usr/common/usg/g09/d1/g09/l1.exe "/scratch/scratchdirs/parksjm/g09/13504652.hopque01/Gau-855.inp" -scrdir="/scratch/scratchdirs/parksjm/g09/13504652.hopque01/"
 Entering Link 1 = /usr/common/usg/g09/d1/g09/l1.exe PID=       856.
  
 Copyright (c) 1988,1990,1992,1993,1995,1998,2003,2009,2013,
            Gaussian, Inc.  All Rights Reserved.
  
 This is part of the Gaussian(R) 09 program.  It is based on
 the Gaussian(R) 03 system (copyright 2003, Gaussian, Inc.),
 the Gaussian(R) 98 system (copyright 1998, Gaussian, Inc.),
 the Gaussian(R) 94 system (copyright 1995, Gaussian, Inc.),
 the Gaussian 92(TM) system (copyright 1992, Gaussian, Inc.),
 the Gaussian 90(TM) system (copyright 1990, Gaussian, Inc.),
 the Gaussian 88(TM) system (copyright 1988, Gaussian, Inc.),
 the Gaussian 86(TM) system (copyright 1986, Carnegie Mellon
 University), and the Gaussian 82(TM) system (copyright 1983,
 Carnegie Mellon University). Gaussian is a federally registered
 trademark of Gaussian, Inc.
  
 This software contains proprietary and confidential information,
 including trade secrets, belonging to Gaussian, Inc.
  
 This software is provided under written license and may be
 used, copied, transmitted, or stored only in accord with that
 written license.
  
 The following legend is applicable only to US Government
 contracts under FAR:
  
                    RESTRICTED RIGHTS LEGEND
  
 Use, reproduction and disclosure by the US Government is
 subject to restrictions as set forth in subparagraphs (a)
 and (c) of the Commercial Computer Software - Restricted
 Rights clause in FAR 52.227-19.
  
 Gaussian, Inc.
 340 Quinnipiac St., Bldg. 40, Wallingford CT 06492
  
  
 ---------------------------------------------------------------
 Warning -- This program may not be used in any manner that
 competes with the business of Gaussian, Inc. or will provide
 assistance to any competitor of Gaussian, Inc.  The licensee
 of this program is prohibited from giving any competitor of
 Gaussian, Inc. access to this program.  By using this program,
 the user acknowledges that Gaussian, Inc. is engaged in the
 business of creating and licensing software in the field of
 computational chemistry and represents and warrants to the
 licensee that it is not a competitor of Gaussian, Inc. and that
 it will not use this program in any manner prohibited above.
 ---------------------------------------------------------------
  

 Cite this work as:
 Gaussian 09, Revision D.01,
 M. J. Frisch, G. W. Trucks, H. B. Schlegel, G. E. Scuseria, 
 M. A. Robb, J. R. Cheeseman, G. Scalmani, V. Barone, B. Mennucci, 
 G. A. Petersson, H. Nakatsuji, M. Caricato, X. Li, H. P. Hratchian, 
 A. F. Izmaylov, J. Bloino, G. Zheng, J. L. Sonnenberg, M. Hada, 
 M. Ehara, K. Toyota, R. Fukuda, J. Hasegawa, M. Ishida, T. Nakajima, 
 Y. Honda, O. Kitao, H. Nakai, T. Vreven, J. A. Montgomery, Jr., 
 J. E. Peralta, F. Ogliaro, M. Bearpark, J. J. Heyd, E. Brothers, 
 K. N. Kudin, V. N. Staroverov, T. Keith, R. Kobayashi, J. Normand, 
 K. Raghavachari, A. Rendell, J. C. Burant, S. S. Iyengar, J. Tomasi, 
 M. Cossi, N. Rega, J. M. Millam, M. Klene, J. E. Knox, J. B. Cross, 
 V. Bakken, C. Adamo, J. Jaramillo, R. Gomperts, R. E. Stratmann, 
 O. Yazyev, A. J. Austin, R. Cammi, C. Pomelli, J. W. Ochterski, 
 R. L. Martin, K. Morokuma, V. G. Zakrzewski, G. A. Voth, 
 P. Salvador, J. J. Dannenberg, S. Dapprich, A. D. Daniels, 
 O. Farkas, J. B. Foresman, J. V. Ortiz, J. Cioslowski, 
 and D. J. Fox, Gaussian, Inc., Wallingford CT, 2013.
 
 ******************************************
 Gaussian 09:  AS64L-G09RevD.01 24-Apr-2013
                29-Oct-2015 
 ******************************************
 %nproc=24
 Will use up to   24 processors via shared memory.
 %chk=H2O_c2v.chk
 %mem=7000mb
 -----------------------------------------------------
 # tpsstpss/6-311++G(d,p) integral=ultrafine scf=tight
 -----------------------------------------------------
 1/38=1/1;
 2/12=2,17=6,18=5,40=1/2;
 3/5=4,6=6,7=1111,11=2,16=1,25=1,30=1,74=2523,75=-5/1,2,3;
 4//1;
 5/5=2,32=2,38=5/2;
 6/7=2,8=2,9=2,10=2,28=1/1;
 99/5=1,9=1/99;
 -------
 H2O_c2v
 -------
 Symbolic Z-matrix:
 Charge =  0 Multiplicity = 1
 O                     0.        0.        0.12157 
 H                     0.        0.76372  -0.48628 
 H                     0.       -0.76372  -0.48628 
 
                          Input orientation:                          
 ---------------------------------------------------------------------
 Center     Atomic      Atomic             Coordinates (Angstroms)
 Number     Number       Type             X           Y           Z
 ---------------------------------------------------------------------
      1          8           0        0.000000    0.000000    0.121570
      2          1           0        0.000000    0.763722   -0.486280
      3          1           0        0.000000   -0.763722   -0.486280
 ---------------------------------------------------------------------
                    Distance matrix (angstroms):
                    1          2          3
     1  O    0.000000
     2  H    0.976091   0.000000
     3  H    0.976091   1.527444   0.000000
 Stoichiometry    H2O
 Framework group  C2V[C2(O),SGV(H2)]
 Deg. of freedom     2
 Full point group                 C2V     NOp   4
 Largest Abelian subgroup         C2V     NOp   4
 Largest concise Abelian subgroup C2      NOp   2
                         Standard orientation:                         
 ---------------------------------------------------------------------
 Center     Atomic      Atomic             Coordinates (Angstroms)
 Number     Number       Type             X           Y           Z
 ---------------------------------------------------------------------
      1          8           0        0.000000    0.000000    0.121570
      2          1           0        0.000000    0.763722   -0.486280
      3          1           0        0.000000   -0.763722   -0.486280
 ---------------------------------------------------------------------
 Rotational constants (GHZ):    764.1077746    429.8643753    275.1008147
 Standard basis: 6-311++G(d,p) (5D, 7F)
 There are    18 symmetry adapted cartesian basis functions of A1  symmetry.
 There are     2 symmetry adapted cartesian basis functions of A2  symmetry.
 There are     6 symmetry adapted cartesian basis functions of B1  symmetry.
 There are    11 symmetry adapted cartesian basis functions of B2  symmetry.
 There are    17 symmetry adapted basis functions of A1  symmetry.
 There are     2 symmetry adapted basis functions of A2  symmetry.
 There are     6 symmetry adapted basis functions of B1  symmetry.
 There are    11 symmetry adapted basis functions of B2  symmetry.
    36 basis functions,    54 primitive gaussians,    37 cartesian basis functions
     5 alpha electrons        5 beta electrons
       nuclear repulsion energy         9.0206769650 Hartrees.
 NAtoms=    3 NActive=    3 NUniq=    2 SFac= 2.25D+00 NAtFMM=   60 NAOKFM=F Big=F
 Integral buffers will be    131072 words long.
 Raffenetti 2 integral format.
 Two-electron integral symmetry is turned on.
 One-electron integrals computed using PRISM.
 NBasis=    36 RedAO= T EigKep=  5.15D-03  NBF=    17     2     6    11
 NBsUse=    36 1.00D-06 EigRej= -1.00D+00 NBFU=    17     2     6    11
 ExpMin= 3.60D-02 ExpMax= 8.59D+03 ExpMxC= 1.30D+03 IAcc=3 IRadAn=         5 AccDes= 0.00D+00
 Harris functional with IExCor= 1009 and IRadAn=       5 diagonalized for initial guess.
 HarFok:  IExCor= 1009 AccDes= 0.00D+00 IRadAn=         5 IDoV= 1 UseB2=F ITyADJ=14
 ICtDFT=  3500011 ScaDFX=  1.000000  1.000000  1.000000  1.000000
 FoFCou: FMM=F IPFlag=           0 FMFlag=      100000 FMFlg1=           0
         NFxFlg=           0 DoJE=T BraDBF=F KetDBF=T FulRan=T
         wScrn=  0.000000 ICntrl=     500 IOpCl=  0 I1Cent=   200000004 NGrid=           0
         NMat0=    1 NMatS0=      1 NMatT0=    0 NMatD0=    1 NMtDS0=    0 NMtDT0=    0
 Petite list used in FoFCou.
 Initial guess orbital symmetries:
       Occupied  (A1) (A1) (B2) (A1) (B1)
       Virtual   (A1) (B2) (A1) (B2) (B1) (A1) (B2) (A1) (B2) (A1)
                 (A1) (B1) (B2) (A1) (A2) (A1) (B1) (B2) (B2) (A1)
                 (A1) (B2) (B1) (A2) (A1) (A1) (B2) (B1) (A1) (B2)
                 (A1)
 The electronic state of the initial guess is 1-A1.
 Keep J ints in memory in symmetry-blocked form, NReq=1112012.
 Requested convergence on RMS density matrix=1.00D-08 within 128 cycles.
 Requested convergence on MAX density matrix=1.00D-06.
 Requested convergence on             energy=1.00D-06.
 No special actions if energy rises.
 SCF Done:  E(RTPSS-TPSS) =  -76.4589440831     A.U. after    9 cycles
            NFock=  9  Conv=0.23D-09     -V/T= 2.0033

 **********************************************************************

            Population analysis using the SCF density.

 **********************************************************************

 Orbital symmetries:
       Occupied  (A1) (A1) (B2) (A1) (B1)
       Virtual   (A1) (B2) (A1) (B2) (B1) (A1) (B2) (A1) (B2) (A1)
                 (A1) (B1) (B2) (A1) (A2) (A1) (B1) (B2) (B2) (A1)
                 (A1) (B2) (B1) (A2) (A1) (A1) (B2) (B1) (A1) (B2)
                 (A1)
 The electronic state is 1-A1.
 Alpha  occ. eigenvalues --  -18.88996  -0.94936  -0.48381  -0.34738  -0.26730
 Alpha virt. eigenvalues --   -0.02955   0.02648   0.12763   0.13950   0.14564
 Alpha virt. eigenvalues --    0.14886   0.21648   0.22306   0.46519   0.51646
 Alpha virt. eigenvalues --    0.93111   0.96401   0.98289   1.18643   1.22868
 Alpha virt. eigenvalues --    1.32172   1.42187   1.63838   1.93084   2.07579
 Alpha virt. eigenvalues --    2.40964   2.59428   3.05079   3.08104   3.25154
 Alpha virt. eigenvalues --    3.62262   3.85506   4.88257   5.25938   5.52686
 Alpha virt. eigenvalues --   49.86078
          Condensed to atoms (all electrons):
               1          2          3
     1  O    7.880677   0.304360   0.304360
     2  H    0.304360   0.475185  -0.024244
     3  H    0.304360  -0.024244   0.475185
 Mulliken charges:
               1
     1  O   -0.489397
     2  H    0.244699
     3  H    0.244699
 Sum of Mulliken charges =   0.00000
 Mulliken charges with hydrogens summed into heavy atoms:
               1
     1  O    0.000000
 Electronic spatial extent (au):  <R**2>=             20.2667
 Charge=              0.0000 electrons
 Dipole moment (field-independent basis, Debye):
    X=              0.0000    Y=              0.0000    Z=             -2.1436  Tot=              2.1436
 Quadrupole moment (field-independent basis, Debye-Ang):
   XX=             -7.8215   YY=             -4.5185   ZZ=             -6.4768
   XY=              0.0000   XZ=              0.0000   YZ=              0.0000
 Traceless Quadrupole moment (field-independent basis, Debye-Ang):
   XX=             -1.5492   YY=              1.7538   ZZ=             -0.2046
   XY=              0.0000   XZ=              0.0000   YZ=              0.0000
 Octapole moment (field-independent basis, Debye-Ang**2):
  XXX=              0.0000  YYY=              0.0000  ZZZ=             -1.4555  XYY=              0.0000
  XXY=              0.0000  XXZ=             -0.4327  XZZ=              0.0000  YZZ=              0.0000
  YYZ=             -1.3269  XYZ=              0.0000
 Hexadecapole moment (field-independent basis, Debye-Ang**3):
 XXXX=             -7.7012 YYYY=             -6.8005 ZZZZ=             -8.1815 XXXY=              0.0000
 XXXZ=              0.0000 YYYX=              0.0000 YYYZ=              0.0000 ZZZX=              0.0000
 ZZZY=              0.0000 XXYY=             -2.7038 XXZZ=             -2.7084 YYZZ=             -2.1505
 XXYZ=              0.0000 YYXZ=              0.0000 ZZXY=              0.0000
 N-N= 9.020676964967D+00 E-N=-1.989105652381D+02  KE= 7.620829202595D+01
 Symmetry A1   KE= 6.804584245719D+01
 Symmetry A2   KE= 2.696464487991D-35
 Symmetry B1   KE= 4.524254827872D+00
 Symmetry B2   KE= 3.638194740883D+00
 1\1\GINC-NID01397\SP\RTPSSTPSS\6-311++G(d,p)\H2O1\PARKSJM\29-Oct-2015\
 0\\# tpsstpss/6-311++G(d,p) integral=ultrafine scf=tight\\H2O_c2v\\0,1
 \O,0,0.,0.,0.12157\H,0,0.,0.763722,-0.48628\H,0,0.,-0.763722,-0.48628\
 \Version=AS64L-G09RevD.01\State=1-A1\HF=-76.4589441\RMSD=2.254e-10\Dip
 ole=0.,0.,-0.84334\Quadrupole=-1.1518094,1.3038958,-0.1520864,0.,0.,0.
 \PG=C02V [C2(O1),SGV(H2)]\\@


 "A LITTLE BIT GOES A LONG WAY"
 R.S. MULLIKEN AS QUOTED BY K. RUEDENBERG
 Job cpu time:       0 days  0 hours  0 minutes 18.5 seconds.
 File lengths (MBytes):  RWF=      5 Int=      0 D2E=      0 Chk=      1 Scr=      1
 Normal termination of Gaussian 09 at Thu Oct 29 07:14:12 2015.
