 Entering GApplication 60298311 resources: utime ~122s, stime ~4s, Rss ~319640, inblocks ~585780, outblocks ~70515
ut=/global/homes/p/parksjm/tpss/H2O_c2v/H2O_c2v.tpss.631gs.freq.log
 Initial command:
 /usr/common/usg/g09/d1/g09/l1.exe "/scratch/scratchdirs/parksjm/g09/13504652.hopque01/Gau-31850.inp" -scrdir="/scratch/scratchdirs/parksjm/g09/13504652.hopque01/"
 Entering Link 1 = /usr/common/usg/g09/d1/g09/l1.exe PID=     31851.
  
 Copyright (c) 1988,1990,1992,1993,1995,1998,2003,2009,2013,
            Gaussian, Inc.  All Rights Reserved.
  
 This is part of the Gaussian(R) 09 program.  It is based on
 the Gaussian(R) 03 system (copyright 2003, Gaussian, Inc.),
 the Gaussian(R) 98 system (copyright 1998, Gaussian, Inc.),
 the Gaussian(R) 94 system (copyright 1995, Gaussian, Inc.),
 the Gaussian 92(TM) system (copyright 1992, Gaussian, Inc.),
 the Gaussian 90(TM) system (copyright 1990, Gaussian, Inc.),
 the Gaussian 88(TM) system (copyright 1988, Gaussian, Inc.),
 the Gaussian 86(TM) system (copyright 1986, Carnegie Mellon
 University), and the Gaussian 82(TM) system (copyright 1983,
 Carnegie Mellon University). Gaussian is a federally registered
 trademark of Gaussian, Inc.
  
 This software contains proprietary and confidential information,
 including trade secrets, belonging to Gaussian, Inc.
  
 This software is provided under written license and may be
 used, copied, transmitted, or stored only in accord with that
 written license.
  
 The following legend is applicable only to US Government
 contracts under FAR:
  
                    RESTRICTED RIGHTS LEGEND
  
 Use, reproduction and disclosure by the US Government is
 subject to restrictions as set forth in subparagraphs (a)
 and (c) of the Commercial Computer Software - Restricted
 Rights clause in FAR 52.227-19.
  
 Gaussian, Inc.
 340 Quinnipiac St., Bldg. 40, Wallingford CT 06492
  
  
 ---------------------------------------------------------------
 Warning -- This program may not be used in any manner that
 competes with the business of Gaussian, Inc. or will provide
 assistance to any competitor of Gaussian, Inc.  The licensee
 of this program is prohibited from giving any competitor of
 Gaussian, Inc. access to this program.  By using this program,
 the user acknowledges that Gaussian, Inc. is engaged in the
 business of creating and licensing software in the field of
 computational chemistry and represents and warrants to the
 licensee that it is not a competitor of Gaussian, Inc. and that
 it will not use this program in any manner prohibited above.
 ---------------------------------------------------------------
  

 Cite this work as:
 Gaussian 09, Revision D.01,
 M. J. Frisch, G. W. Trucks, H. B. Schlegel, G. E. Scuseria, 
 M. A. Robb, J. R. Cheeseman, G. Scalmani, V. Barone, B. Mennucci, 
 G. A. Petersson, H. Nakatsuji, M. Caricato, X. Li, H. P. Hratchian, 
 A. F. Izmaylov, J. Bloino, G. Zheng, J. L. Sonnenberg, M. Hada, 
 M. Ehara, K. Toyota, R. Fukuda, J. Hasegawa, M. Ishida, T. Nakajima, 
 Y. Honda, O. Kitao, H. Nakai, T. Vreven, J. A. Montgomery, Jr., 
 J. E. Peralta, F. Ogliaro, M. Bearpark, J. J. Heyd, E. Brothers, 
 K. N. Kudin, V. N. Staroverov, T. Keith, R. Kobayashi, J. Normand, 
 K. Raghavachari, A. Rendell, J. C. Burant, S. S. Iyengar, J. Tomasi, 
 M. Cossi, N. Rega, J. M. Millam, M. Klene, J. E. Knox, J. B. Cross, 
 V. Bakken, C. Adamo, J. Jaramillo, R. Gomperts, R. E. Stratmann, 
 O. Yazyev, A. J. Austin, R. Cammi, C. Pomelli, J. W. Ochterski, 
 R. L. Martin, K. Morokuma, V. G. Zakrzewski, G. A. Voth, 
 P. Salvador, J. J. Dannenberg, S. Dapprich, A. D. Daniels, 
 O. Farkas, J. B. Foresman, J. V. Ortiz, J. Cioslowski, 
 and D. J. Fox, Gaussian, Inc., Wallingford CT, 2013.
 
 ******************************************
 Gaussian 09:  AS64L-G09RevD.01 24-Apr-2013
                29-Oct-2015 
 ******************************************
 %nproc=24
 Will use up to   24 processors via shared memory.
 %chk=H2O_c2v.chk
 %mem=7000mb
 -----------------------------------------------------
 # tpsstpss/6-31G(d) freq integral=ultrafine scf=tight
 -----------------------------------------------------
 1/10=4,30=1,38=1/1,3;
 2/12=2,17=6,18=5,40=1/2;
 3/5=1,6=6,7=1,11=2,16=1,25=1,30=1,71=2,74=2523,75=-5,140=1/1,2,3;
 4//1;
 5/5=2,32=2,38=5,98=1/2;
 8/6=4,10=90,11=11/1;
 11/6=1,8=1,9=11,15=111,16=1/1,2,10;
 10/6=1/2;
 6/7=2,8=2,9=2,10=2,18=1,28=1/1;
 7/8=1,10=1,25=1/1,2,3,16;
 1/10=4,30=1/3;
 99//99;
 -------
 H2O_c2v
 -------
 Symbolic Z-matrix:
 Charge =  0 Multiplicity = 1
 O                     0.        0.        0.12157 
 H                     0.        0.76372  -0.48628 
 H                     0.       -0.76372  -0.48628 
 

 GradGradGradGradGradGradGradGradGradGradGradGradGradGradGradGradGradGrad
 Berny optimization.
 Initialization pass.
 Trust Radius=3.00D-01 FncErr=1.00D-07 GrdErr=1.00D-07
 Number of steps in this run=      2 maximum allowed number of steps=      2.
 GradGradGradGradGradGradGradGradGradGradGradGradGradGradGradGradGradGrad

                          Input orientation:                          
 ---------------------------------------------------------------------
 Center     Atomic      Atomic             Coordinates (Angstroms)
 Number     Number       Type             X           Y           Z
 ---------------------------------------------------------------------
      1          8           0        0.000000    0.000000    0.121570
      2          1           0        0.000000    0.763722   -0.486280
      3          1           0        0.000000   -0.763722   -0.486280
 ---------------------------------------------------------------------
                    Distance matrix (angstroms):
                    1          2          3
     1  O    0.000000
     2  H    0.976091   0.000000
     3  H    0.976091   1.527444   0.000000
 Stoichiometry    H2O
 Framework group  C2V[C2(O),SGV(H2)]
 Deg. of freedom     2
 Full point group                 C2V     NOp   4
 Largest Abelian subgroup         C2V     NOp   4
 Largest concise Abelian subgroup C2      NOp   2
                         Standard orientation:                         
 ---------------------------------------------------------------------
 Center     Atomic      Atomic             Coordinates (Angstroms)
 Number     Number       Type             X           Y           Z
 ---------------------------------------------------------------------
      1          8           0        0.000000    0.000000    0.121570
      2          1           0        0.000000    0.763722   -0.486280
      3          1           0        0.000000   -0.763722   -0.486280
 ---------------------------------------------------------------------
 Rotational constants (GHZ):    764.1077746    429.8643753    275.1008147
 Standard basis: 6-31G(d) (6D, 7F)
 There are    10 symmetry adapted cartesian basis functions of A1  symmetry.
 There are     1 symmetry adapted cartesian basis functions of A2  symmetry.
 There are     3 symmetry adapted cartesian basis functions of B1  symmetry.
 There are     5 symmetry adapted cartesian basis functions of B2  symmetry.
 There are    10 symmetry adapted basis functions of A1  symmetry.
 There are     1 symmetry adapted basis functions of A2  symmetry.
 There are     3 symmetry adapted basis functions of B1  symmetry.
 There are     5 symmetry adapted basis functions of B2  symmetry.
    19 basis functions,    36 primitive gaussians,    19 cartesian basis functions
     5 alpha electrons        5 beta electrons
       nuclear repulsion energy         9.0206769650 Hartrees.
 NAtoms=    3 NActive=    3 NUniq=    2 SFac= 2.25D+00 NAtFMM=   60 NAOKFM=F Big=F
 Integral buffers will be    131072 words long.
 Raffenetti 2 integral format.
 Two-electron integral symmetry is turned on.
 One-electron integrals computed using PRISM.
 NBasis=    19 RedAO= T EigKep=  4.29D-02  NBF=    10     1     3     5
 NBsUse=    19 1.00D-06 EigRej= -1.00D+00 NBFU=    10     1     3     5
 ExpMin= 1.61D-01 ExpMax= 5.48D+03 ExpMxC= 8.25D+02 IAcc=3 IRadAn=         5 AccDes= 0.00D+00
 Harris functional with IExCor= 1009 and IRadAn=       5 diagonalized for initial guess.
 HarFok:  IExCor= 1009 AccDes= 0.00D+00 IRadAn=         5 IDoV= 1 UseB2=F ITyADJ=14
 ICtDFT=  3500011 ScaDFX=  1.000000  1.000000  1.000000  1.000000
 FoFCou: FMM=F IPFlag=           0 FMFlag=      100000 FMFlg1=           0
         NFxFlg=           0 DoJE=T BraDBF=F KetDBF=T FulRan=T
         wScrn=  0.000000 ICntrl=     500 IOpCl=  0 I1Cent=   200000004 NGrid=           0
         NMat0=    1 NMatS0=      1 NMatT0=    0 NMatD0=    1 NMtDS0=    0 NMtDT0=    0
 Petite list used in FoFCou.
 Initial guess orbital symmetries:
       Occupied  (A1) (A1) (B2) (A1) (B1)
       Virtual   (A1) (B2) (B2) (A1) (B1) (A1) (B2) (A1) (A1) (A2)
                 (B1) (A1) (B2) (A1)
 The electronic state of the initial guess is 1-A1.
 Keep J ints in memory in symmetry-blocked form, NReq=902173.
 Requested convergence on RMS density matrix=1.00D-08 within 128 cycles.
 Requested convergence on MAX density matrix=1.00D-06.
 Requested convergence on             energy=1.00D-06.
 No special actions if energy rises.
 Integral accuracy reduced to 1.0D-05 until final iterations.
 Initial convergence to 1.0D-05 achieved.  Increase integral accuracy.
 SCF Done:  E(RTPSS-TPSS) =  -76.4108368866     A.U. after   10 cycles
            NFock= 10  Conv=0.10D-07     -V/T= 2.0077
 Range of M.O.s used for correlation:     1    19
 NBasis=    19 NAE=     5 NBE=     5 NFC=     0 NFV=     0
 NROrb=     19 NOA=     5 NOB=     5 NVA=    14 NVB=    14
 Symmetrizing basis deriv contribution to polar:
 IMax=3 JMax=2 DiffMx= 0.00D+00
 G2DrvN: will do     4 centers at a time, making    1 passes.
 Calling FoFCou, ICntrl=  3507 FMM=F I1Cent=   0 AccDes= 0.00D+00.
 End of G2Drv F.D. properties file   721 does not exist.
 End of G2Drv F.D. properties file   722 does not exist.
 End of G2Drv F.D. properties file   788 does not exist.
          IDoAtm=111
          Differentiating once with respect to electric field.
                with respect to dipole field.
          Differentiating once with respect to nuclear coordinates.
 Keep J ints in memory in symmetry-blocked form, NReq=879566.
          There are     9 degrees of freedom in the 1st order CPHF.  IDoFFX=4 NUNeed=     9.
      9 vectors produced by pass  0 Test12= 7.78D-16 1.11D-08 XBig12= 4.44D+00 1.53D+00.
 AX will form     9 AO Fock derivatives at one time.
      9 vectors produced by pass  1 Test12= 7.78D-16 1.11D-08 XBig12= 5.65D-01 3.73D-01.
      9 vectors produced by pass  2 Test12= 7.78D-16 1.11D-08 XBig12= 1.26D-03 1.53D-02.
      9 vectors produced by pass  3 Test12= 7.78D-16 1.11D-08 XBig12= 3.92D-07 4.03D-04.
      4 vectors produced by pass  4 Test12= 7.78D-16 1.11D-08 XBig12= 5.31D-11 4.44D-06.
      1 vectors produced by pass  5 Test12= 7.78D-16 1.11D-08 XBig12= 4.09D-15 3.96D-08.
 InvSVY:  IOpt=1 It=  1 EMax= 4.44D-16
 Solved reduced A of dimension    41 with     9 vectors.
 Isotropic polarizability for W=    0.000000        5.38 Bohr**3.
 End of Minotr F.D. properties file   721 does not exist.
 End of Minotr F.D. properties file   722 does not exist.
 End of Minotr F.D. properties file   788 does not exist.

 **********************************************************************

            Population analysis using the SCF density.

 **********************************************************************

 Orbital symmetries:
       Occupied  (A1) (A1) (B2) (A1) (B1)
       Virtual   (A1) (B2) (B2) (A1) (B1) (A1) (B2) (A1) (A1) (A2)
                 (B1) (A1) (B2) (A1)
 The electronic state is 1-A1.
 Alpha  occ. eigenvalues --  -18.89547  -0.92663  -0.46448  -0.32093  -0.23495
 Alpha virt. eigenvalues --    0.04782   0.12941   0.74700   0.82501   0.86037
 Alpha virt. eigenvalues --    0.87166   1.03136   1.16913   1.69325   1.71363
 Alpha virt. eigenvalues --    1.74442   2.25307   2.55134   3.52238
          Condensed to atoms (all electrons):
               1          2          3
     1  O    8.289500   0.236615   0.236615
     2  H    0.236615   0.404387  -0.022367
     3  H    0.236615  -0.022367   0.404387
 Mulliken charges:
               1
     1  O   -0.762730
     2  H    0.381365
     3  H    0.381365
 Sum of Mulliken charges =   0.00000
 Mulliken charges with hydrogens summed into heavy atoms:
               1
     1  O    0.000000
 APT charges:
               1
     1  O   -0.457964
     2  H    0.228982
     3  H    0.228982
 Sum of APT charges =   0.00000
 APT charges with hydrogens summed into heavy atoms:
               1
     1  O    0.000000
 Electronic spatial extent (au):  <R**2>=             19.3094
 Charge=              0.0000 electrons
 Dipole moment (field-independent basis, Debye):
    X=              0.0000    Y=              0.0000    Z=             -2.0750  Tot=              2.0750
 Quadrupole moment (field-independent basis, Debye-Ang):
   XX=             -7.2195   YY=             -4.3267   ZZ=             -5.9829
   XY=              0.0000   XZ=              0.0000   YZ=              0.0000
 Traceless Quadrupole moment (field-independent basis, Debye-Ang):
   XX=             -1.3765   YY=              1.5164   ZZ=             -0.1399
   XY=              0.0000   XZ=              0.0000   YZ=              0.0000
 Octapole moment (field-independent basis, Debye-Ang**2):
  XXX=              0.0000  YYY=              0.0000  ZZZ=             -1.1902  XYY=              0.0000
  XXY=              0.0000  XXZ=             -0.3156  XZZ=              0.0000  YZZ=              0.0000
  YYZ=             -1.1974  XYZ=              0.0000
 Hexadecapole moment (field-independent basis, Debye-Ang**3):
 XXXX=             -5.2347 YYYY=             -6.1574 ZZZZ=             -6.3607 XXXY=              0.0000
 XXXZ=              0.0000 YYYX=              0.0000 YYYZ=              0.0000 ZZZX=              0.0000
 ZZZY=              0.0000 XXYY=             -2.1341 XXZZ=             -1.9847 YYZZ=             -1.7592
 XXYZ=              0.0000 YYXZ=              0.0000 ZZXY=              0.0000
 N-N= 9.020676964967D+00 E-N=-1.986131307596D+02  KE= 7.582681503396D+01
 Symmetry A1   KE= 6.769677094395D+01
 Symmetry A2   KE= 4.568395193137D-35
 Symmetry B1   KE= 4.587206468293D+00
 Symmetry B2   KE= 3.542837621718D+00
  Exact polarizability:   2.857   0.000   7.640   0.000   0.000   5.656
 Approx polarizability:   3.310   0.000  10.318   0.000   0.000   7.897
 Calling FoFJK, ICntrl=    100527 FMM=F ISym2X=1 I1Cent= 0 IOpClX= 0 NMat=1 NMatS=1 NMatT=0.
 Full mass-weighted force constant matrix:
 Low frequencies ---  -48.4725  -24.6363   -0.0008    0.0011    0.0015   47.9862
 Low frequencies --- 1710.8314 3626.8650 3751.5520
 Diagonal vibrational polarizability:
        0.0000000       0.0209098       0.6107961
 Harmonic frequencies (cm**-1), IR intensities (KM/Mole), Raman scattering
 activities (A**4/AMU), depolarization ratios for plane and unpolarized
 incident light, reduced masses (AMU), force constants (mDyne/A),
 and normal coordinates:
                      1                      2                      3
                     A1                     A1                     B2
 Frequencies --   1710.8314              3626.8650              3751.5520
 Red. masses --      1.0827                 1.0452                 1.0803
 Frc consts  --      1.8671                 8.1002                 8.9583
 IR Inten    --     66.3936                 0.1730                10.9355
  Atom  AN      X      Y      Z        X      Y      Z        X      Y      Z
     1   8     0.00   0.00   0.07     0.00   0.00   0.05     0.00   0.07   0.00
     2   1     0.00  -0.43  -0.56     0.00   0.58  -0.40     0.00  -0.55   0.44
     3   1     0.00   0.43  -0.56     0.00  -0.58  -0.40     0.00  -0.55  -0.44

 -------------------
 - Thermochemistry -
 -------------------
 Temperature   298.150 Kelvin.  Pressure   1.00000 Atm.
 Atom     1 has atomic number  8 and mass  15.99491
 Atom     2 has atomic number  1 and mass   1.00783
 Atom     3 has atomic number  1 and mass   1.00783
 Molecular mass:    18.01056 amu.
 Principal axes and moments of inertia in atomic units:
                           1         2         3
     Eigenvalues --     2.36189   4.19840   6.56029
           X            0.00000   0.00000   1.00000
           Y            1.00000   0.00000   0.00000
           Z            0.00000   1.00000   0.00000
 This molecule is an asymmetric top.
 Rotational symmetry number  2.
 Rotational temperatures (Kelvin)     36.67135    20.63021    13.20274
 Rotational constants (GHZ):         764.10777   429.86438   275.10081
 Zero-point vibrational energy      54365.8 (Joules/Mol)
                                   12.99373 (Kcal/Mol)
 Vibrational temperatures:   2461.50  5218.24  5397.64
          (Kelvin)
 
 Zero-point correction=                           0.020707 (Hartree/Particle)
 Thermal correction to Energy=                    0.023541
 Thermal correction to Enthalpy=                  0.024486
 Thermal correction to Gibbs Free Energy=         0.003016
 Sum of electronic and zero-point Energies=            -76.390130
 Sum of electronic and thermal Energies=               -76.387295
 Sum of electronic and thermal Enthalpies=             -76.386351
 Sum of electronic and thermal Free Energies=          -76.407821
 
                     E (Thermal)             CV                S
                      KCal/Mol        Cal/Mol-Kelvin    Cal/Mol-Kelvin
 Total                   14.772              5.997             45.187
 Electronic               0.000              0.000              0.000
 Translational            0.889              2.981             34.608
 Rotational               0.889              2.981             10.574
 Vibrational             12.995              0.035              0.005
                       Q            Log10(Q)             Ln(Q)
 Total Bot       0.410060D-01         -1.387152         -3.194036
 Total V=0       0.137186D+09          8.137309         18.736846
 Vib (Bot)       0.298987D-09         -9.524348        -21.930622
 Vib (V=0)       0.100026D+01          0.000113          0.000260
 Electronic      0.100000D+01          0.000000          0.000000
 Translational   0.300432D+07          6.477746         14.915562
 Rotational      0.456510D+02          1.659450          3.821024
 ***** Axes restored to original set *****
 -------------------------------------------------------------------
 Center     Atomic                   Forces (Hartrees/Bohr)
 Number     Number              X              Y              Z
 -------------------------------------------------------------------
      1        8           0.000000000    0.000000000   -0.000192789
      2        1           0.000000000    0.000121940    0.000096395
      3        1           0.000000000   -0.000121940    0.000096395
 -------------------------------------------------------------------
 Cartesian Forces:  Max     0.000192789 RMS     0.000097462

 GradGradGradGradGradGradGradGradGradGradGradGradGradGradGradGradGradGrad
 Berny optimization.
 Search for a local minimum.
 Step number   1 out of a maximum of    2
 All quantities printed in internal units (Hartrees-Bohrs-Radians)
 Second derivative matrix not updated -- analytic derivatives used.
 The second derivative matrix:
                          X1        Y1        Z1        X2        Y2
           X1           0.00016
           Y1           0.00000   0.61027
           Z1           0.00000   0.00000   0.43429
           X2          -0.00008   0.00000   0.00000  -0.00001
           Y2           0.00000  -0.30514   0.17421   0.00000   0.33698
           Z2           0.00000   0.24281  -0.21715   0.00000  -0.20851
           X3          -0.00008   0.00000   0.00000   0.00008   0.00000
           Y3           0.00000  -0.30514  -0.17421   0.00000  -0.03184
           Z3           0.00000  -0.24281  -0.21715   0.00000   0.03430
                          Z2        X3        Y3        Z3
           Z2           0.20516
           X3           0.00000  -0.00001
           Y3          -0.03430   0.00000   0.33698
           Z3           0.01199   0.00000   0.20851   0.20516
 ITU=  0
     Eigenvalues ---    0.16280   0.71227   0.88740
 Angle between quadratic step and forces=  24.31 degrees.
 ClnCor:  largest displacement from symmetrization is 3.18D-16 for atom     3.
 Linear search not attempted -- first point.
 ClnCor:  largest displacement from symmetrization is 9.86D-32 for atom     3.
 TrRot=  0.000000  0.000000 -0.000288  0.000000  0.000000  0.000000
 Variable       Old X    -DE/DX   Delta X   Delta X   Delta X     New X
                                 (Linear)    (Quad)   (Total)
    X1        0.00000   0.00000   0.00000   0.00000   0.00000   0.00000
    Y1        0.00000   0.00000   0.00000   0.00000   0.00000   0.00000
    Z1        0.22973  -0.00019   0.00000  -0.00047  -0.00076   0.22897
    X2        0.00000   0.00000   0.00000   0.00000   0.00000   0.00000
    Y2        1.44323   0.00012   0.00000   0.00087   0.00087   1.44410
    Z2       -0.91894   0.00010   0.00000   0.00067   0.00038  -0.91856
    X3        0.00000   0.00000   0.00000   0.00000   0.00000   0.00000
    Y3       -1.44323  -0.00012   0.00000  -0.00087  -0.00087  -1.44410
    Z3       -0.91894   0.00010   0.00000   0.00067   0.00038  -0.91856
         Item               Value     Threshold  Converged?
 Maximum Force            0.000193     0.000450     YES
 RMS     Force            0.000097     0.000300     YES
 Maximum Displacement     0.000870     0.001800     YES
 RMS     Displacement     0.000515     0.001200     YES
 Predicted change in Energy=-2.161613D-07
 Optimization completed.
    -- Stationary point found.
 GradGradGradGradGradGradGradGradGradGradGradGradGradGradGradGradGradGrad

 1\1\GINC-NID01397\Freq\RTPSSTPSS\6-31G(d)\H2O1\PARKSJM\29-Oct-2015\0\\
 # tpsstpss/6-31G(d) freq integral=ultrafine scf=tight\\H2O_c2v\\0,1\O,
 0.,0.,0.12157\H,0.,0.763722,-0.48628\H,0.,-0.763722,-0.48628\\Version=
 AS64L-G09RevD.01\State=1-A1\HF=-76.4108369\RMSD=9.951e-09\RMSF=9.746e-
 05\ZeroPoint=0.0207068\Thermal=0.0235414\Dipole=0.,0.,-0.8163714\Dipol
 eDeriv=-0.7107256,0.,0.,0.,-0.3692497,0.,0.,0.,-0.2939172,0.3553628,0.
 ,0.,0.,0.1846249,0.1004471,0.,0.1359004,0.1469586,0.3553628,0.,0.,0.,0
 .1846249,-0.1004471,0.,-0.1359004,0.1469586\Polar=2.8571471,0.,7.63995
 08,0.,0.,5.6555617\PG=C02V [C2(O1),SGV(H2)]\NImag=0\\0.00015599,0.,0.6
 1027160,0.,0.,0.43429382,-0.00007799,0.,0.,-0.00000581,0.,-0.30513580,
 0.17421132,0.,0.33697578,0.,0.24280539,-0.21714691,0.,-0.20850836,0.20
 515901,-0.00007799,0.,0.,0.00008380,0.,0.,-0.00000581,0.,-0.30513580,-
 0.17421132,0.,-0.03183998,-0.03429704,0.,0.33697578,0.,-0.24280539,-0.
 21714691,0.,0.03429704,0.01198790,0.,0.20850836,0.20515901\\0.,0.,0.00
 019279,0.,-0.00012194,-0.00009639,0.,0.00012194,-0.00009639\\\@


 EVERYTHING'S GOT A MORAL, IF ONLY YOU CAN FIND IT.

                                    -- LEWIS CARROL, ALICE IN WONDERLAND
 Job cpu time:       0 days  0 hours  0 minutes 53.8 seconds.
 File lengths (MBytes):  RWF=      5 Int=      0 D2E=      0 Chk=      1 Scr=      1
 Normal termination of Gaussian 09 at Thu Oct 29 07:13:42 2015.
