 Entering GApplication 61100071 resources: utime ~95353s, stime ~512s, Rss ~1246532, inblocks ~26798507, outblocks ~5990575
6311ppgdp.sp.com
 Output=/global/homes/s/shosty/tpsshtpss/H2O.Co.2.Corrin.H2O/H2O.Co.2.Corrin.H2O.tpssh.6311ppgdp.sp.log
 Initial command:
 /usr/common/usg/g09/d1/g09/l1.exe "/scratch/scratchdirs/shosty/g09/13569044.hopque01/Gau-23473.inp" -scrdir="/scratch/scratchdirs/shosty/g09/13569044.hopque01/"
 Entering Link 1 = /usr/common/usg/g09/d1/g09/l1.exe PID=     23474.
  
 Copyright (c) 1988,1990,1992,1993,1995,1998,2003,2009,2013,
            Gaussian, Inc.  All Rights Reserved.
  
 This is part of the Gaussian(R) 09 program.  It is based on
 the Gaussian(R) 03 system (copyright 2003, Gaussian, Inc.),
 the Gaussian(R) 98 system (copyright 1998, Gaussian, Inc.),
 the Gaussian(R) 94 system (copyright 1995, Gaussian, Inc.),
 the Gaussian 92(TM) system (copyright 1992, Gaussian, Inc.),
 the Gaussian 90(TM) system (copyright 1990, Gaussian, Inc.),
 the Gaussian 88(TM) system (copyright 1988, Gaussian, Inc.),
 the Gaussian 86(TM) system (copyright 1986, Carnegie Mellon
 University), and the Gaussian 82(TM) system (copyright 1983,
 Carnegie Mellon University). Gaussian is a federally registered
 trademark of Gaussian, Inc.
  
 This software contains proprietary and confidential information,
 including trade secrets, belonging to Gaussian, Inc.
  
 This software is provided under written license and may be
 used, copied, transmitted, or stored only in accord with that
 written license.
  
 The following legend is applicable only to US Government
 contracts under FAR:
  
                    RESTRICTED RIGHTS LEGEND
  
 Use, reproduction and disclosure by the US Government is
 subject to restrictions as set forth in subparagraphs (a)
 and (c) of the Commercial Computer Software - Restricted
 Rights clause in FAR 52.227-19.
  
 Gaussian, Inc.
 340 Quinnipiac St., Bldg. 40, Wallingford CT 06492
  
  
 ---------------------------------------------------------------
 Warning -- This program may not be used in any manner that
 competes with the business of Gaussian, Inc. or will provide
 assistance to any competitor of Gaussian, Inc.  The licensee
 of this program is prohibited from giving any competitor of
 Gaussian, Inc. access to this program.  By using this program,
 the user acknowledges that Gaussian, Inc. is engaged in the
 business of creating and licensing software in the field of
 computational chemistry and represents and warrants to the
 licensee that it is not a competitor of Gaussian, Inc. and that
 it will not use this program in any manner prohibited above.
 ---------------------------------------------------------------
  

 Cite this work as:
 Gaussian 09, Revision D.01,
 M. J. Frisch, G. W. Trucks, H. B. Schlegel, G. E. Scuseria, 
 M. A. Robb, J. R. Cheeseman, G. Scalmani, V. Barone, B. Mennucci, 
 G. A. Petersson, H. Nakatsuji, M. Caricato, X. Li, H. P. Hratchian, 
 A. F. Izmaylov, J. Bloino, G. Zheng, J. L. Sonnenberg, M. Hada, 
 M. Ehara, K. Toyota, R. Fukuda, J. Hasegawa, M. Ishida, T. Nakajima, 
 Y. Honda, O. Kitao, H. Nakai, T. Vreven, J. A. Montgomery, Jr., 
 J. E. Peralta, F. Ogliaro, M. Bearpark, J. J. Heyd, E. Brothers, 
 K. N. Kudin, V. N. Staroverov, T. Keith, R. Kobayashi, J. Normand, 
 K. Raghavachari, A. Rendell, J. C. Burant, S. S. Iyengar, J. Tomasi, 
 M. Cossi, N. Rega, J. M. Millam, M. Klene, J. E. Knox, J. B. Cross, 
 V. Bakken, C. Adamo, J. Jaramillo, R. Gomperts, R. E. Stratmann, 
 O. Yazyev, A. J. Austin, R. Cammi, C. Pomelli, J. W. Ochterski, 
 R. L. Martin, K. Morokuma, V. G. Zakrzewski, G. A. Voth, 
 P. Salvador, J. J. Dannenberg, S. Dapprich, A. D. Daniels, 
 O. Farkas, J. B. Foresman, J. V. Ortiz, J. Cioslowski, 
 and D. J. Fox, Gaussian, Inc., Wallingford CT, 2013.
 
 ******************************************
 Gaussian 09:  AS64L-G09RevD.01 24-Apr-2013
                10-Nov-2015 
 ******************************************
 %nproc=24
 Will use up to   24 processors via shared memory.
 %chk=H2O.Co.2.Corrin.H2O.chk
 %mem=7000mb
 --------------------------------------------------
 # tpssh/6-311++G(d,p) integral=ultrafine scf=tight
 --------------------------------------------------
 1/38=1/1;
 2/12=2,17=6,18=5,40=1/2;
 3/5=4,6=6,7=1111,11=2,16=1,25=1,30=1,74=-35,75=-5/1,2,3;
 4//1;
 5/5=2,32=2,38=5/2;
 6/7=2,8=2,9=2,10=2,28=1/1;
 99/5=1,9=1/99;
 -------------------
 H2O.Co.2.Corrin.H2O
 -------------------
 Symbolic Z-matrix:
 Charge =  1 Multiplicity = 2
 O                    -0.18243   0.20627  -2.30662 
 H                     0.06553  -0.60952  -2.7851 
 H                     0.39299   0.90394  -2.67837 
 Co                   -0.03096   0.       0. 
 N                    -1.32619  -1.41521  -0.03582 
 C                    -1.0398   -2.77373   0.03467 
 C                    -2.31134  -3.59303   0.16813 
 C                    -3.42699  -2.55658  -0.0643 
 C                    -2.67909  -1.23864  -0.02766 
 C                     0.2248   -3.32397   0.01598 
 C                     1.40596  -2.54625  -0.09657 
 N                     1.3663   -1.22372  -0.14545 
 C                     2.73042  -0.66653  -0.37212 
 C                     3.67107  -1.80214   0.07294 
 C                     2.82763  -3.07094  -0.21123 
 C                     2.73042   0.66652   0.37213 
 N                     1.3663    1.22371   0.14545 
 C                     1.40597   2.54625   0.09657 
 C                     2.82765   3.07092   0.21124 
 C                     3.67108   1.80212  -0.07294 
 C                    -3.31436   0.00001   0. 
 C                    -2.67908   1.23865   0.02767 
 N                    -1.32619   1.41521   0.03582 
 C                    -1.03979   2.77374  -0.03468 
 C                    -2.31133   3.59303  -0.16815 
 C                    -3.42698   2.55659   0.06432 
 C                     0.22482   3.32397  -0.01599 
 H                     2.8438   -0.46578  -1.45211 
 H                     2.8438    0.46577   1.45211 
 H                    -4.40247   0.00001   0.00001 
 H                     0.31758   4.40535  -0.0836 
 H                     0.31756  -4.40536   0.0836 
 H                     3.8707    1.71841  -1.15087 
 H                     4.63093   1.79498   0.45441 
 H                    -4.22119  -2.59358   0.69104 
 H                     3.02794   3.89531  -0.48416 
 H                    -2.36865   4.02764  -1.17642 
 H                     3.00546   3.4557    1.22811 
 H                    -4.22119   2.5936   -0.69101 
 H                     3.87069  -1.71842   1.15088 
 H                     4.63092  -1.795    -0.4544 
 H                     3.00545  -3.45572  -1.22809 
 H                     3.02792  -3.89533   0.48417 
 H                    -2.33258   4.42617   0.54437 
 H                    -2.3326   -4.42614  -0.54441 
 H                    -3.90761   2.68563   1.04531 
 H                    -2.36867  -4.02766   1.17639 
 H                    -3.90765  -2.6856   -1.04529 
 O                    -0.18245  -0.20626   2.30661 
 H                     0.39297  -0.90393   2.67837 
 H                     0.0655    0.60953   2.78509 
 
 Stoichiometry    C19H25CoN4O2(1+,2)
 Framework group  C1[X(C19H25CoN4O2)]
 Deg. of freedom   147
 Full point group                 C1      NOp   1
 Largest Abelian subgroup         C1      NOp   1
 Largest concise Abelian subgroup C1      NOp   1
                         Standard orientation:                         
 ---------------------------------------------------------------------
 Center     Atomic      Atomic             Coordinates (Angstroms)
 Number     Number       Type             X           Y           Z
 ---------------------------------------------------------------------
      1          8           0       -0.182428   -0.206267    2.306619
      2          1           0        0.065529    0.609522    2.785100
      3          1           0        0.392992   -0.903937    2.678368
      4         27           0       -0.030963    0.000000    0.000001
      5          7           0       -1.326193    1.415207    0.035824
      6          6           0       -1.039804    2.773733   -0.034673
      7          6           0       -2.311345    3.593027   -0.168131
      8          6           0       -3.426993    2.556574    0.064304
      9          6           0       -2.679085    1.238635    0.027661
     10          6           0        0.224800    3.323970   -0.015984
     11          6           0        1.405956    2.546253    0.096571
     12          7           0        1.366297    1.223720    0.145445
     13          6           0        2.730415    0.666533    0.372121
     14          6           0        3.671073    1.802139   -0.072943
     15          6           0        2.827633    3.070937    0.211231
     16          6           0        2.730417   -0.666518   -0.372125
     17          7           0        1.366303   -1.223714   -0.145445
     18          6           0        1.405969   -2.546247   -0.096574
     19          6           0        2.827648   -3.070922   -0.211240
     20          6           0        3.671081   -1.802120    0.072935
     21          6           0       -3.314357   -0.000008   -0.000004
     22          6           0       -2.679079   -1.238648   -0.027666
     23          7           0       -1.326186   -1.415212   -0.035822
     24          6           0       -1.039789   -2.773737    0.034680
     25          6           0       -2.311327   -3.593035    0.168149
     26          6           0       -3.426977   -2.556592   -0.064317
     27          6           0        0.224817   -3.323969    0.015986
     28          1           0        2.843799    0.465783    1.452107
     29          1           0        2.843797   -0.465767   -1.452112
     30          1           0       -4.402474   -0.000011   -0.000008
     31          1           0        0.317580   -4.405354    0.083599
     32          1           0        0.317558    4.405356   -0.083595
     33          1           0        3.870695   -1.718407    1.150872
     34          1           0        4.630925   -1.794980   -0.454413
     35          1           0       -4.221191    2.593577   -0.691038
     36          1           0        3.027943   -3.895312    0.484156
     37          1           0       -2.368653   -4.027643    1.176420
     38          1           0        3.005460   -3.455699   -1.228105
     39          1           0       -4.221193   -2.593597    0.691005
     40          1           0        3.870685    1.718424   -1.150880
     41          1           0        4.630918    1.795004    0.454403
     42          1           0        3.005446    3.455719    1.228094
     43          1           0        3.027922    3.895326   -0.484167
     44          1           0       -2.332576   -4.426172   -0.544365
     45          1           0       -2.332601    4.426144    0.544407
     46          1           0       -3.907605   -2.685629   -1.045314
     47          1           0       -2.368667    4.027663   -1.176388
     48          1           0       -3.907648    2.685601    1.045288
     49          8           0       -0.182445    0.206261   -2.306609
     50          1           0        0.392972    0.903928   -2.678370
     51          1           0        0.065503   -0.609532   -2.785088
 ---------------------------------------------------------------------
 Rotational constants (GHZ):      0.2583042      0.2471374      0.1422149
 Standard basis: 6-311++G(d,p) (5D, 7F)
 There are   815 symmetry adapted cartesian basis functions of A   symmetry.
 There are   783 symmetry adapted basis functions of A   symmetry.
   783 basis functions,  1219 primitive gaussians,   815 cartesian basis functions
   105 alpha electrons      104 beta electrons
       nuclear repulsion energy      3209.2859904153 Hartrees.
 NAtoms=   51 NActive=   51 NUniq=   51 SFac= 1.00D+00 NAtFMM=   60 NAOKFM=F Big=F
 Integral buffers will be    131072 words long.
 Raffenetti 2 integral format.
 Two-electron integral symmetry is turned on.
 One-electron integrals computed using PRISM.
 NBasis=   783 RedAO= T EigKep=  1.04D-06  NBF=   783
 NBsUse=   778 1.00D-06 EigRej=  7.17D-07 NBFU=   778
 ExpMin= 1.33D-02 ExpMax= 2.71D+05 ExpMxC= 9.06D+03 IAcc=3 IRadAn=         5 AccDes= 0.00D+00
 Harris functional with IExCor= 1009 and IRadAn=       5 diagonalized for initial guess.
 HarFok:  IExCor= 1009 AccDes= 0.00D+00 IRadAn=         5 IDoV= 1 UseB2=F ITyADJ=14
 ICtDFT=  3500011 ScaDFX=  1.000000  1.000000  1.000000  1.000000
 FoFCou: FMM=F IPFlag=           0 FMFlag=      100000 FMFlg1=           0
         NFxFlg=           0 DoJE=T BraDBF=F KetDBF=T FulRan=T
         wScrn=  0.000000 ICntrl=     500 IOpCl=  0 I1Cent=   200000004 NGrid=           0
         NMat0=    1 NMatS0=      1 NMatT0=    0 NMatD0=    1 NMtDS0=    0 NMtDT0=    0
 Petite list used in FoFCou.
 Initial guess <Sx>= 0.0000 <Sy>= 0.0000 <Sz>= 0.5000 <S**2>= 0.7500 S= 0.5000
 Requested convergence on RMS density matrix=1.00D-08 within 128 cycles.
 Requested convergence on MAX density matrix=1.00D-06.
 Requested convergence on             energy=1.00D-06.
 No special actions if energy rises.
 EnCoef did   100 forward-backward iterations
 Restarting incremental Fock formation.
 SCF Done:  E(UTPSSh) =  -2491.60510393     A.U. after   28 cycles
            NFock= 28  Conv=0.21D-08     -V/T= 2.0024
 <Sx>= 0.0000 <Sy>= 0.0000 <Sz>= 0.5000 <S**2>= 0.7603 S= 0.5051
 <L.S>= 0.000000000000E+00
 Annihilation of the first spin contaminant:
 S**2 before annihilation     0.7603,   after     0.7501

 **********************************************************************

            Population analysis using the SCF density.

 **********************************************************************

 Orbital symmetries:
 Alpha Orbitals:
       Occupied  (A) (A) (A) (A) (A) (A) (A) (A) (A) (A) (A) (A)
                 (A) (A) (A) (A) (A) (A) (A) (A) (A) (A) (A) (A)
                 (A) (A) (A) (A) (A) (A) (A) (A) (A) (A) (A) (A)
                 (A) (A) (A) (A) (A) (A) (A) (A) (A) (A) (A) (A)
                 (A) (A) (A) (A) (A) (A) (A) (A) (A) (A) (A) (A)
                 (A) (A) (A) (A) (A) (A) (A) (A) (A) (A) (A) (A)
                 (A) (A) (A) (A) (A) (A) (A) (A) (A) (A) (A) (A)
                 (A) (A) (A) (A) (A) (A) (A) (A) (A) (A) (A) (A)
                 (A) (A) (A) (A) (A) (A) (A) (A) (A)
       Virtual   (A) (A) (A) (A) (A) (A) (A) (A) (A) (A) (A) (A)
                 (A) (A) (A) (A) (A) (A) (A) (A) (A) (A) (A) (A)
                 (A) (A) (A) (A) (A) (A) (A) (A) (A) (A) (A) (A)
                 (A) (A) (A) (A) (A) (A) (A) (A) (A) (A) (A) (A)
                 (A) (A) (A) (A) (A) (A) (A) (A) (A) (A) (A) (A)
                 (A) (A) (A) (A) (A) (A) (A) (A) (A) (A) (A) (A)
                 (A) (A) (A) (A) (A) (A) (A) (A) (A) (A) (A) (A)
                 (A) (A) (A) (A) (A) (A) (A) (A) (A) (A) (A) (A)
                 (A) (A) (A) (A) (A) (A) (A) (A) (A) (A) (A) (A)
                 (A) (A) (A) (A) (A) (A) (A) (A) (A) (A) (A) (A)
                 (A) (A) (A) (A) (A) (A) (A) (A) (A) (A) (A) (A)
                 (A) (A) (A) (A) (A) (A) (A) (A) (A) (A) (A) (A)
                 (A) (A) (A) (A) (A) (A) (A) (A) (A) (A) (A) (A)
                 (A) (A) (A) (A) (A) (A) (A) (A) (A) (A) (A) (A)
                 (A) (A) (A) (A) (A) (A) (A) (A) (A) (A) (A) (A)
                 (A) (A) (A) (A) (A) (A) (A) (A) (A) (A) (A) (A)
                 (A) (A) (A) (A) (A) (A) (A) (A) (A) (A) (A) (A)
                 (A) (A) (A) (A) (A) (A) (A) (A) (A) (A) (A) (A)
                 (A) (A) (A) (A) (A) (A) (A) (A) (A) (A) (A) (A)
                 (A) (A) (A) (A) (A) (A) (A) (A) (A) (A) (A) (A)
                 (A) (A) (A) (A) (A) (A) (A) (A) (A) (A) (A) (A)
                 (A) (A) (A) (A) (A) (A) (A) (A) (A) (A) (A) (A)
                 (A) (A) (A) (A) (A) (A) (A) (A) (A) (A) (A) (A)
                 (A) (A) (A) (A) (A) (A) (A) (A) (A) (A) (A) (A)
                 (A) (A) (A) (A) (A) (A) (A) (A) (A) (A) (A) (A)
                 (A) (A) (A) (A) (A) (A) (A) (A) (A) (A) (A) (A)
                 (A) (A) (A) (A) (A) (A) (A) (A) (A) (A) (A) (A)
                 (A) (A) (A) (A) (A) (A) (A) (A) (A) (A) (A) (A)
                 (A) (A) (A) (A) (A) (A) (A) (A) (A) (A) (A) (A)
                 (A) (A) (A) (A) (A) (A) (A) (A) (A) (A) (A) (A)
                 (A) (A) (A) (A) (A) (A) (A) (A) (A) (A) (A) (A)
                 (A) (A) (A) (A) (A) (A) (A) (A) (A) (A) (A) (A)
                 (A) (A) (A) (A) (A) (A) (A) (A) (A) (A) (A) (A)
                 (A) (A) (A) (A) (A) (A) (A) (A) (A) (A) (A) (A)
                 (A) (A) (A) (A) (A) (A) (A) (A) (A) (A) (A) (A)
                 (A) (A) (A) (A) (A) (A) (A) (A) (A) (A) (A) (A)
                 (A) (A) (A) (A) (A) (A) (A) (A) (A) (A) (A) (A)
                 (A) (A) (A) (A) (A) (A) (A) (A) (A) (A) (A) (A)
                 (A) (A) (A) (A) (A) (A) (A) (A) (A) (A) (A) (A)
                 (A) (A) (A) (A) (A) (A) (A) (A) (A) (A) (A) (A)
                 (A) (A) (A) (A) (A) (A) (A) (A) (A) (A) (A) (A)
                 (A) (A) (A) (A) (A) (A) (A) (A) (A) (A) (A) (A)
                 (A) (A) (A) (A) (A) (A) (A) (A) (A) (A) (A) (A)
                 (A) (A) (A) (A) (A) (A) (A) (A) (A) (A) (A) (A)
                 (A) (A) (A) (A) (A) (A) (A) (A) (A) (A) (A) (A)
                 (A) (A) (A) (A) (A) (A) (A) (A) (A) (A) (A) (A)
                 (A) (A) (A) (A) (A) (A) (A) (A) (A) (A) (A) (A)
                 (A) (A) (A) (A) (A) (A) (A) (A) (A) (A) (A) (A)
                 (A) (A) (A) (A) (A) (A) (A) (A) (A) (A) (A) (A)
                 (A) (A) (A) (A) (A) (A) (A) (A) (A) (A) (A) (A)
                 (A) (A) (A) (A) (A) (A) (A) (A) (A) (A) (A) (A)
                 (A) (A) (A) (A) (A) (A) (A) (A) (A) (A) (A) (A)
                 (A) (A) (A) (A) (A) (A) (A) (A) (A) (A) (A) (A)
                 (A) (A) (A) (A) (A) (A) (A) (A) (A) (A) (A) (A)
                 (A) (A) (A) (A) (A) (A) (A) (A) (A) (A) (A) (A)
                 (A) (A) (A) (A) (A) (A) (A) (A) (A) (A) (A) (A)
                 (A)
 Beta  Orbitals:
       Occupied  (A) (A) (A) (A) (A) (A) (A) (A) (A) (A) (A) (A)
                 (A) (A) (A) (A) (A) (A) (A) (A) (A) (A) (A) (A)
                 (A) (A) (A) (A) (A) (A) (A) (A) (A) (A) (A) (A)
                 (A) (A) (A) (A) (A) (A) (A) (A) (A) (A) (A) (A)
                 (A) (A) (A) (A) (A) (A) (A) (A) (A) (A) (A) (A)
                 (A) (A) (A) (A) (A) (A) (A) (A) (A) (A) (A) (A)
                 (A) (A) (A) (A) (A) (A) (A) (A) (A) (A) (A) (A)
                 (A) (A) (A) (A) (A) (A) (A) (A) (A) (A) (A) (A)
                 (A) (A) (A) (A) (A) (A) (A) (A)
       Virtual   (A) (A) (A) (A) (A) (A) (A) (A) (A) (A) (A) (A)
                 (A) (A) (A) (A) (A) (A) (A) (A) (A) (A) (A) (A)
                 (A) (A) (A) (A) (A) (A) (A) (A) (A) (A) (A) (A)
                 (A) (A) (A) (A) (A) (A) (A) (A) (A) (A) (A) (A)
                 (A) (A) (A) (A) (A) (A) (A) (A) (A) (A) (A) (A)
                 (A) (A) (A) (A) (A) (A) (A) (A) (A) (A) (A) (A)
                 (A) (A) (A) (A) (A) (A) (A) (A) (A) (A) (A) (A)
                 (A) (A) (A) (A) (A) (A) (A) (A) (A) (A) (A) (A)
                 (A) (A) (A) (A) (A) (A) (A) (A) (A) (A) (A) (A)
                 (A) (A) (A) (A) (A) (A) (A) (A) (A) (A) (A) (A)
                 (A) (A) (A) (A) (A) (A) (A) (A) (A) (A) (A) (A)
                 (A) (A) (A) (A) (A) (A) (A) (A) (A) (A) (A) (A)
                 (A) (A) (A) (A) (A) (A) (A) (A) (A) (A) (A) (A)
                 (A) (A) (A) (A) (A) (A) (A) (A) (A) (A) (A) (A)
                 (A) (A) (A) (A) (A) (A) (A) (A) (A) (A) (A) (A)
                 (A) (A) (A) (A) (A) (A) (A) (A) (A) (A) (A) (A)
                 (A) (A) (A) (A) (A) (A) (A) (A) (A) (A) (A) (A)
                 (A) (A) (A) (A) (A) (A) (A) (A) (A) (A) (A) (A)
                 (A) (A) (A) (A) (A) (A) (A) (A) (A) (A) (A) (A)
                 (A) (A) (A) (A) (A) (A) (A) (A) (A) (A) (A) (A)
                 (A) (A) (A) (A) (A) (A) (A) (A) (A) (A) (A) (A)
                 (A) (A) (A) (A) (A) (A) (A) (A) (A) (A) (A) (A)
                 (A) (A) (A) (A) (A) (A) (A) (A) (A) (A) (A) (A)
                 (A) (A) (A) (A) (A) (A) (A) (A) (A) (A) (A) (A)
                 (A) (A) (A) (A) (A) (A) (A) (A) (A) (A) (A) (A)
                 (A) (A) (A) (A) (A) (A) (A) (A) (A) (A) (A) (A)
                 (A) (A) (A) (A) (A) (A) (A) (A) (A) (A) (A) (A)
                 (A) (A) (A) (A) (A) (A) (A) (A) (A) (A) (A) (A)
                 (A) (A) (A) (A) (A) (A) (A) (A) (A) (A) (A) (A)
                 (A) (A) (A) (A) (A) (A) (A) (A) (A) (A) (A) (A)
                 (A) (A) (A) (A) (A) (A) (A) (A) (A) (A) (A) (A)
                 (A) (A) (A) (A) (A) (A) (A) (A) (A) (A) (A) (A)
                 (A) (A) (A) (A) (A) (A) (A) (A) (A) (A) (A) (A)
                 (A) (A) (A) (A) (A) (A) (A) (A) (A) (A) (A) (A)
                 (A) (A) (A) (A) (A) (A) (A) (A) (A) (A) (A) (A)
                 (A) (A) (A) (A) (A) (A) (A) (A) (A) (A) (A) (A)
                 (A) (A) (A) (A) (A) (A) (A) (A) (A) (A) (A) (A)
                 (A) (A) (A) (A) (A) (A) (A) (A) (A) (A) (A) (A)
                 (A) (A) (A) (A) (A) (A) (A) (A) (A) (A) (A) (A)
                 (A) (A) (A) (A) (A) (A) (A) (A) (A) (A) (A) (A)
                 (A) (A) (A) (A) (A) (A) (A) (A) (A) (A) (A) (A)
                 (A) (A) (A) (A) (A) (A) (A) (A) (A) (A) (A) (A)
                 (A) (A) (A) (A) (A) (A) (A) (A) (A) (A) (A) (A)
                 (A) (A) (A) (A) (A) (A) (A) (A) (A) (A) (A) (A)
                 (A) (A) (A) (A) (A) (A) (A) (A) (A) (A) (A) (A)
                 (A) (A) (A) (A) (A) (A) (A) (A) (A) (A) (A) (A)
                 (A) (A) (A) (A) (A) (A) (A) (A) (A) (A) (A) (A)
                 (A) (A) (A) (A) (A) (A) (A) (A) (A) (A) (A) (A)
                 (A) (A) (A) (A) (A) (A) (A) (A) (A) (A) (A) (A)
                 (A) (A) (A) (A) (A) (A) (A) (A) (A) (A) (A) (A)
                 (A) (A) (A) (A) (A) (A) (A) (A) (A) (A) (A) (A)
                 (A) (A) (A) (A) (A) (A) (A) (A) (A) (A) (A) (A)
                 (A) (A) (A) (A) (A) (A) (A) (A) (A) (A) (A) (A)
                 (A) (A) (A) (A) (A) (A) (A) (A) (A) (A) (A) (A)
                 (A) (A) (A) (A) (A) (A) (A) (A) (A) (A) (A) (A)
                 (A) (A) (A) (A) (A) (A) (A) (A) (A) (A) (A) (A)
                 (A) (A)
 The electronic state is 2-A.
 Alpha  occ. eigenvalues -- -277.37026 -32.77131 -28.40502 -28.40459 -28.40049
 Alpha  occ. eigenvalues --  -19.18379 -19.18379 -14.37640 -14.37640 -14.36866
 Alpha  occ. eigenvalues --  -14.36865 -10.27042 -10.27042 -10.27037 -10.27037
 Alpha  occ. eigenvalues --  -10.26999 -10.26998 -10.26106 -10.26088 -10.23117
 Alpha  occ. eigenvalues --  -10.23116 -10.22683 -10.22683 -10.22652 -10.22652
 Alpha  occ. eigenvalues --  -10.22617 -10.22617 -10.21446 -10.21446 -10.21148
 Alpha  occ. eigenvalues --   -3.79018  -2.47482  -2.47237  -2.47222  -1.11519
 Alpha  occ. eigenvalues --   -1.11468  -1.05254  -1.03963  -1.03772  -1.01964
 Alpha  occ. eigenvalues --   -0.90297  -0.87013  -0.86829  -0.86301  -0.85777
 Alpha  occ. eigenvalues --   -0.85678  -0.84904  -0.80463  -0.79685  -0.73971
 Alpha  occ. eigenvalues --   -0.72821  -0.70781  -0.68116  -0.68081  -0.67120
 Alpha  occ. eigenvalues --   -0.64842  -0.64147  -0.63423  -0.63355  -0.62536
 Alpha  occ. eigenvalues --   -0.60116  -0.59488  -0.59221  -0.58411  -0.57273
 Alpha  occ. eigenvalues --   -0.56670  -0.55963  -0.55376  -0.54751  -0.52425
 Alpha  occ. eigenvalues --   -0.51893  -0.51452  -0.51077  -0.50344  -0.49342
 Alpha  occ. eigenvalues --   -0.48943  -0.48519  -0.47956  -0.47341  -0.47338
 Alpha  occ. eigenvalues --   -0.47280  -0.47168  -0.46919  -0.46324  -0.46072
 Alpha  occ. eigenvalues --   -0.45826  -0.44818  -0.44618  -0.44352  -0.44063
 Alpha  occ. eigenvalues --   -0.43561  -0.43090  -0.42960  -0.42641  -0.41314
 Alpha  occ. eigenvalues --   -0.40504  -0.40361  -0.39445  -0.36447  -0.35107
 Alpha  occ. eigenvalues --   -0.34249  -0.31556  -0.30915  -0.30411  -0.29811
 Alpha virt. eigenvalues --   -0.19153  -0.15941  -0.14678  -0.13024  -0.12232
 Alpha virt. eigenvalues --   -0.11864  -0.09529  -0.08985  -0.08028  -0.07716
 Alpha virt. eigenvalues --   -0.07636  -0.07498  -0.07467  -0.07055  -0.06322
 Alpha virt. eigenvalues --   -0.05895  -0.05877  -0.05386  -0.05232  -0.04824
 Alpha virt. eigenvalues --   -0.04338  -0.04052  -0.03680  -0.03085  -0.03065
 Alpha virt. eigenvalues --   -0.02689  -0.02513  -0.02385  -0.02000  -0.01809
 Alpha virt. eigenvalues --   -0.01224  -0.01166  -0.00778  -0.00720  -0.00694
 Alpha virt. eigenvalues --   -0.00374  -0.00337   0.00416   0.00996   0.01422
 Alpha virt. eigenvalues --    0.01701   0.01942   0.02167   0.02440   0.02550
 Alpha virt. eigenvalues --    0.02711   0.02727   0.02972   0.03181   0.03536
 Alpha virt. eigenvalues --    0.03704   0.04147   0.04168   0.04530   0.04625
 Alpha virt. eigenvalues --    0.04857   0.04940   0.05073   0.05398   0.05521
 Alpha virt. eigenvalues --    0.05680   0.05833   0.06129   0.06277   0.06366
 Alpha virt. eigenvalues --    0.06461   0.06748   0.07072   0.07081   0.07456
 Alpha virt. eigenvalues --    0.07469   0.07580   0.07788   0.08064   0.08161
 Alpha virt. eigenvalues --    0.08164   0.08322   0.08555   0.08656   0.08718
 Alpha virt. eigenvalues --    0.09113   0.09311   0.09443   0.09652   0.09935
 Alpha virt. eigenvalues --    0.10370   0.10470   0.10697   0.11064   0.11200
 Alpha virt. eigenvalues --    0.11634   0.11691   0.11797   0.12195   0.12246
 Alpha virt. eigenvalues --    0.12424   0.12550   0.12810   0.13259   0.13532
 Alpha virt. eigenvalues --    0.14057   0.14326   0.14433   0.14508   0.15442
 Alpha virt. eigenvalues --    0.15501   0.15517   0.15772   0.16073   0.16564
 Alpha virt. eigenvalues --    0.16795   0.17108   0.17131   0.17218   0.18101
 Alpha virt. eigenvalues --    0.18485   0.18725   0.19021   0.19054   0.19294
 Alpha virt. eigenvalues --    0.19554   0.19783   0.19789   0.20334   0.20339
 Alpha virt. eigenvalues --    0.20588   0.20711   0.20725   0.21186   0.21334
 Alpha virt. eigenvalues --    0.21527   0.21678   0.21840   0.21985   0.22471
 Alpha virt. eigenvalues --    0.22732   0.22943   0.23114   0.23218   0.23517
 Alpha virt. eigenvalues --    0.23769   0.23914   0.24203   0.24302   0.24433
 Alpha virt. eigenvalues --    0.24857   0.25033   0.25350   0.25652   0.25856
 Alpha virt. eigenvalues --    0.26257   0.26508   0.26863   0.27103   0.27395
 Alpha virt. eigenvalues --    0.27952   0.28450   0.28482   0.28930   0.28976
 Alpha virt. eigenvalues --    0.29750   0.30112   0.30455   0.30561   0.31287
 Alpha virt. eigenvalues --    0.31374   0.31656   0.32470   0.32540   0.32887
 Alpha virt. eigenvalues --    0.33430   0.33724   0.35279   0.35329   0.35623
 Alpha virt. eigenvalues --    0.36716   0.37258   0.37377   0.37840   0.38734
 Alpha virt. eigenvalues --    0.38854   0.39593   0.39739   0.40252   0.40314
 Alpha virt. eigenvalues --    0.40631   0.41503   0.41694   0.43172   0.43892
 Alpha virt. eigenvalues --    0.44087   0.44944   0.45145   0.45620   0.45720
 Alpha virt. eigenvalues --    0.46110   0.46391   0.46962   0.47366   0.48036
 Alpha virt. eigenvalues --    0.48841   0.48959   0.49337   0.49757   0.50551
 Alpha virt. eigenvalues --    0.50911   0.51207   0.51789   0.52594   0.52621
 Alpha virt. eigenvalues --    0.53423   0.53662   0.54110   0.54665   0.54786
 Alpha virt. eigenvalues --    0.55802   0.56072   0.56172   0.57287   0.57410
 Alpha virt. eigenvalues --    0.57630   0.58149   0.58451   0.58976   0.59339
 Alpha virt. eigenvalues --    0.59528   0.59789   0.60523   0.60737   0.61128
 Alpha virt. eigenvalues --    0.61411   0.62045   0.63551   0.63615   0.63854
 Alpha virt. eigenvalues --    0.64090   0.64585   0.64946   0.65341   0.65562
 Alpha virt. eigenvalues --    0.65707   0.66242   0.66412   0.66831   0.67142
 Alpha virt. eigenvalues --    0.67425   0.67642   0.67839   0.67897   0.68825
 Alpha virt. eigenvalues --    0.68886   0.69584   0.69746   0.71060   0.71757
 Alpha virt. eigenvalues --    0.72027   0.72492   0.72604   0.72861   0.74167
 Alpha virt. eigenvalues --    0.75852   0.76669   0.77395   0.78253   0.78596
 Alpha virt. eigenvalues --    0.78843   0.81280   0.81560   0.83093   0.83883
 Alpha virt. eigenvalues --    0.84943   0.86348   0.86609   0.86920   0.87400
 Alpha virt. eigenvalues --    0.87859   0.88609   0.89903   0.90101   0.90220
 Alpha virt. eigenvalues --    0.91192   0.91319   0.92061   0.92470   0.93055
 Alpha virt. eigenvalues --    0.93073   0.94143   0.95393   0.96106   0.98351
 Alpha virt. eigenvalues --    0.98523   0.99856   1.00585   1.01627   1.02764
 Alpha virt. eigenvalues --    1.03229   1.04966   1.05167   1.06167   1.06862
 Alpha virt. eigenvalues --    1.07184   1.07713   1.08815   1.10015   1.10677
 Alpha virt. eigenvalues --    1.11362   1.13037   1.13084   1.13737   1.14309
 Alpha virt. eigenvalues --    1.15299   1.15510   1.16718   1.17107   1.18174
 Alpha virt. eigenvalues --    1.19087   1.21006   1.21481   1.22906   1.24026
 Alpha virt. eigenvalues --    1.24206   1.25009   1.25305   1.26701   1.27203
 Alpha virt. eigenvalues --    1.27948   1.29013   1.29031   1.29916   1.29926
 Alpha virt. eigenvalues --    1.30815   1.32227   1.32465   1.33264   1.34510
 Alpha virt. eigenvalues --    1.34605   1.36102   1.37354   1.37778   1.38166
 Alpha virt. eigenvalues --    1.39348   1.39996   1.41161   1.41683   1.42240
 Alpha virt. eigenvalues --    1.42724   1.43511   1.43913   1.44113   1.44768
 Alpha virt. eigenvalues --    1.46315   1.47162   1.47858   1.47961   1.48415
 Alpha virt. eigenvalues --    1.48850   1.49719   1.49927   1.49961   1.50934
 Alpha virt. eigenvalues --    1.51797   1.52565   1.52806   1.53103   1.54262
 Alpha virt. eigenvalues --    1.54519   1.55053   1.55410   1.55929   1.56269
 Alpha virt. eigenvalues --    1.58297   1.58456   1.58567   1.58715   1.60260
 Alpha virt. eigenvalues --    1.60667   1.60975   1.60992   1.61463   1.61833
 Alpha virt. eigenvalues --    1.62497   1.62711   1.64642   1.64874   1.65048
 Alpha virt. eigenvalues --    1.65532   1.66104   1.66668   1.67446   1.67473
 Alpha virt. eigenvalues --    1.68179   1.68426   1.68977   1.69967   1.70934
 Alpha virt. eigenvalues --    1.71946   1.73203   1.73260   1.73363   1.74817
 Alpha virt. eigenvalues --    1.75310   1.76133   1.76503   1.77156   1.77663
 Alpha virt. eigenvalues --    1.78321   1.78470   1.78957   1.79326   1.79910
 Alpha virt. eigenvalues --    1.80354   1.80524   1.81642   1.82279   1.82733
 Alpha virt. eigenvalues --    1.82966   1.83341   1.84207   1.85698   1.89798
 Alpha virt. eigenvalues --    1.90059   1.91604   1.92099   1.92390   1.92997
 Alpha virt. eigenvalues --    1.93269   1.94506   1.95536   1.95576   1.96076
 Alpha virt. eigenvalues --    1.97137   1.97656   1.97856   1.99351   1.99574
 Alpha virt. eigenvalues --    2.03617   2.03930   2.04631   2.04739   2.04786
 Alpha virt. eigenvalues --    2.06153   2.07525   2.07968   2.08985   2.10229
 Alpha virt. eigenvalues --    2.11137   2.11345   2.12109   2.12418   2.13551
 Alpha virt. eigenvalues --    2.13728   2.14952   2.15633   2.15866   2.16455
 Alpha virt. eigenvalues --    2.16691   2.17954   2.19357   2.19435   2.20420
 Alpha virt. eigenvalues --    2.21861   2.22769   2.25065   2.25294   2.28282
 Alpha virt. eigenvalues --    2.31584   2.31780   2.32468   2.33148   2.33651
 Alpha virt. eigenvalues --    2.34585   2.34925   2.36120   2.38162   2.40381
 Alpha virt. eigenvalues --    2.40763   2.41369   2.43681   2.43936   2.45496
 Alpha virt. eigenvalues --    2.45756   2.46597   2.46793   2.46938   2.47762
 Alpha virt. eigenvalues --    2.49529   2.50075   2.51050   2.51569   2.52952
 Alpha virt. eigenvalues --    2.53926   2.54794   2.55057   2.55631   2.57264
 Alpha virt. eigenvalues --    2.58913   2.58982   2.59579   2.59768   2.61451
 Alpha virt. eigenvalues --    2.61845   2.63592   2.64612   2.64834   2.65321
 Alpha virt. eigenvalues --    2.65788   2.67659   2.68296   2.68783   2.69221
 Alpha virt. eigenvalues --    2.70733   2.71358   2.71817   2.72660   2.72740
 Alpha virt. eigenvalues --    2.75528   2.75636   2.76560   2.79152   2.79235
 Alpha virt. eigenvalues --    2.79687   2.79945   2.83525   2.83901   2.84086
 Alpha virt. eigenvalues --    2.84899   2.85139   2.85986   2.86487   2.87794
 Alpha virt. eigenvalues --    2.87882   2.88651   2.90624   2.90809   2.91687
 Alpha virt. eigenvalues --    2.91820   2.92052   2.93151   2.94761   2.94928
 Alpha virt. eigenvalues --    2.96424   2.97429   2.98018   2.98264   2.99098
 Alpha virt. eigenvalues --    3.00226   3.00980   3.01842   3.03085   3.03271
 Alpha virt. eigenvalues --    3.05010   3.05816   3.06000   3.08779   3.09754
 Alpha virt. eigenvalues --    3.10751   3.12841   3.13025   3.14188   3.14840
 Alpha virt. eigenvalues --    3.16140   3.17921   3.18738   3.19090   3.19836
 Alpha virt. eigenvalues --    3.20754   3.21197   3.22345   3.23549   3.24877
 Alpha virt. eigenvalues --    3.31590   3.36059   3.36605   3.38156   3.38352
 Alpha virt. eigenvalues --    3.43391   3.43749   3.52038   3.54643   3.56028
 Alpha virt. eigenvalues --    3.57934   3.58088   3.59260   3.60724   3.60727
 Alpha virt. eigenvalues --    3.61384   3.61439   3.66317   3.66904   3.69829
 Alpha virt. eigenvalues --    3.77781   3.79600   3.80071   3.83629   3.85661
 Alpha virt. eigenvalues --    3.87251   3.87651   3.87918   3.88861   3.90711
 Alpha virt. eigenvalues --    3.91940   3.93404   3.94935   3.96803   3.98194
 Alpha virt. eigenvalues --    3.99083   4.03873   4.07350   4.12903   4.15055
 Alpha virt. eigenvalues --    4.15899   4.17730   4.19830   4.20007   4.20974
 Alpha virt. eigenvalues --    4.24928   4.26195   4.33477   4.36767   4.40104
 Alpha virt. eigenvalues --    4.42354   4.62910   4.63527   4.77658   4.88685
 Alpha virt. eigenvalues --    4.97899   5.03740   5.09676   5.14966   5.15643
 Alpha virt. eigenvalues --    5.36991   5.44757   5.53186   5.55861   6.26226
 Alpha virt. eigenvalues --    6.27893   6.44245   6.63067   6.87682   8.40394
 Alpha virt. eigenvalues --    8.56127   8.56854  23.79701  23.80695  23.83326
 Alpha virt. eigenvalues --   23.86410  23.87571  23.88726  23.89504  23.91073
 Alpha virt. eigenvalues --   23.91249  23.93417  23.94561  23.95436  23.95513
 Alpha virt. eigenvalues --   23.99990  24.01189  24.02422  24.13778  24.14598
 Alpha virt. eigenvalues --   24.16323  28.23869  34.06309  34.16720  34.17506
 Alpha virt. eigenvalues --   35.70260  35.70812  35.71975  35.77942  50.02912
 Alpha virt. eigenvalues --   50.06608 153.95293 805.37470
  Beta  occ. eigenvalues -- -277.37025 -32.75114 -28.39328 -28.39321 -28.37329
  Beta  occ. eigenvalues --  -19.18239 -19.18239 -14.37654 -14.37654 -14.36885
  Beta  occ. eigenvalues --  -14.36884 -10.27062 -10.27062 -10.27060 -10.27060
  Beta  occ. eigenvalues --  -10.27031 -10.27030 -10.26108 -10.26091 -10.23118
  Beta  occ. eigenvalues --  -10.23117 -10.22683 -10.22683 -10.22652 -10.22652
  Beta  occ. eigenvalues --  -10.22617 -10.22617 -10.21435 -10.21435 -10.21138
  Beta  occ. eigenvalues --   -3.74027  -2.43568  -2.43449  -2.39400  -1.11306
  Beta  occ. eigenvalues --   -1.11257  -1.05270  -1.03989  -1.03799  -1.01986
  Beta  occ. eigenvalues --   -0.90318  -0.87029  -0.86848  -0.86304  -0.85785
  Beta  occ. eigenvalues --   -0.85689  -0.84911  -0.80461  -0.79718  -0.73980
  Beta  occ. eigenvalues --   -0.72828  -0.70785  -0.68134  -0.68101  -0.67134
  Beta  occ. eigenvalues --   -0.64848  -0.64095  -0.63331  -0.63266  -0.62500
  Beta  occ. eigenvalues --   -0.60129  -0.59522  -0.59248  -0.58320  -0.57289
  Beta  occ. eigenvalues --   -0.56686  -0.55987  -0.55377  -0.54751  -0.52429
  Beta  occ. eigenvalues --   -0.51521  -0.51177  -0.50854  -0.50336  -0.49338
  Beta  occ. eigenvalues --   -0.48931  -0.48502  -0.47900  -0.47358  -0.47314
  Beta  occ. eigenvalues --   -0.47183  -0.46967  -0.46523  -0.46092  -0.46048
  Beta  occ. eigenvalues --   -0.45650  -0.44773  -0.44617  -0.44298  -0.44080
  Beta  occ. eigenvalues --   -0.42968  -0.42824  -0.42483  -0.42269  -0.41363
  Beta  occ. eigenvalues --   -0.40410  -0.40357  -0.39455  -0.36302  -0.34191
  Beta  occ. eigenvalues --   -0.31751  -0.30334  -0.30185  -0.28917
  Beta virt. eigenvalues --   -0.19148  -0.15802  -0.15141  -0.13116  -0.11862
  Beta virt. eigenvalues --   -0.11598  -0.11551  -0.09512  -0.08978  -0.07902
  Beta virt. eigenvalues --   -0.07681  -0.07622  -0.07477  -0.07457  -0.07055
  Beta virt. eigenvalues --   -0.06330  -0.05885  -0.05876  -0.05364  -0.05207
  Beta virt. eigenvalues --   -0.04805  -0.04315  -0.04043  -0.03663  -0.03051
  Beta virt. eigenvalues --   -0.03012  -0.02677  -0.02479  -0.02383  -0.01995
  Beta virt. eigenvalues --   -0.01795  -0.01212  -0.01167  -0.00761  -0.00705
  Beta virt. eigenvalues --   -0.00689  -0.00365  -0.00281   0.00464   0.01001
  Beta virt. eigenvalues --    0.01436   0.01704   0.01946   0.02176   0.02458
  Beta virt. eigenvalues --    0.02562   0.02727   0.02730   0.02985   0.03192
  Beta virt. eigenvalues --    0.03544   0.03710   0.04164   0.04167   0.04532
  Beta virt. eigenvalues --    0.04641   0.04877   0.04948   0.05096   0.05407
  Beta virt. eigenvalues --    0.05524   0.05694   0.05843   0.06148   0.06285
  Beta virt. eigenvalues --    0.06379   0.06482   0.06754   0.07079   0.07080
  Beta virt. eigenvalues --    0.07478   0.07490   0.07574   0.07792   0.08089
  Beta virt. eigenvalues --    0.08162   0.08198   0.08331   0.08564   0.08658
  Beta virt. eigenvalues --    0.08735   0.09110   0.09320   0.09447   0.09653
  Beta virt. eigenvalues --    0.09939   0.10370   0.10483   0.10703   0.11065
  Beta virt. eigenvalues --    0.11205   0.11641   0.11707   0.11807   0.12203
  Beta virt. eigenvalues --    0.12246   0.12429   0.12550   0.12828   0.13336
  Beta virt. eigenvalues --    0.13539   0.14067   0.14376   0.14475   0.14547
  Beta virt. eigenvalues --    0.15464   0.15601   0.15693   0.15776   0.16094
  Beta virt. eigenvalues --    0.16565   0.16802   0.17187   0.17210   0.17255
  Beta virt. eigenvalues --    0.18210   0.18514   0.18799   0.19047   0.19067
  Beta virt. eigenvalues --    0.19314   0.19568   0.19867   0.19904   0.20346
  Beta virt. eigenvalues --    0.20394   0.20601   0.20728   0.20753   0.21340
  Beta virt. eigenvalues --    0.21357   0.21594   0.21705   0.21997   0.22053
  Beta virt. eigenvalues --    0.22481   0.22755   0.22962   0.23127   0.23225
  Beta virt. eigenvalues --    0.23535   0.23779   0.23926   0.24217   0.24320
  Beta virt. eigenvalues --    0.24435   0.24853   0.25063   0.25468   0.25677
  Beta virt. eigenvalues --    0.25878   0.26320   0.26504   0.26875   0.27112
  Beta virt. eigenvalues --    0.27716   0.28007   0.28497   0.28515   0.28952
  Beta virt. eigenvalues --    0.29034   0.29783   0.30139   0.30506   0.30595
  Beta virt. eigenvalues --    0.31342   0.31448   0.31698   0.32484   0.32556
  Beta virt. eigenvalues --    0.32912   0.33462   0.33896   0.35342   0.35371
  Beta virt. eigenvalues --    0.35701   0.36786   0.37304   0.37413   0.37854
  Beta virt. eigenvalues --    0.38761   0.38871   0.39691   0.39725   0.40274
  Beta virt. eigenvalues --    0.40357   0.40663   0.41674   0.41738   0.43217
  Beta virt. eigenvalues --    0.43933   0.44135   0.45006   0.45146   0.45697
  Beta virt. eigenvalues --    0.45768   0.46136   0.46414   0.47024   0.47421
  Beta virt. eigenvalues --    0.48048   0.48857   0.48959   0.49364   0.49809
  Beta virt. eigenvalues --    0.50571   0.50911   0.51237   0.51842   0.52609
  Beta virt. eigenvalues --    0.52656   0.53437   0.53671   0.54114   0.54691
  Beta virt. eigenvalues --    0.54773   0.55805   0.56080   0.56187   0.57353
  Beta virt. eigenvalues --    0.57415   0.57666   0.58152   0.58477   0.59009
  Beta virt. eigenvalues --    0.59341   0.59576   0.59826   0.60512   0.60765
  Beta virt. eigenvalues --    0.61165   0.61424   0.62049   0.63555   0.63653
  Beta virt. eigenvalues --    0.63878   0.64090   0.64604   0.64941   0.65317
  Beta virt. eigenvalues --    0.65581   0.65700   0.66256   0.66448   0.66851
  Beta virt. eigenvalues --    0.67166   0.67449   0.67641   0.67854   0.67897
  Beta virt. eigenvalues --    0.68834   0.68898   0.69661   0.69751   0.71092
  Beta virt. eigenvalues --    0.71747   0.72112   0.72499   0.72612   0.72868
  Beta virt. eigenvalues --    0.74163   0.75876   0.76678   0.77493   0.78259
  Beta virt. eigenvalues --    0.78594   0.78910   0.81293   0.81683   0.83239
  Beta virt. eigenvalues --    0.83955   0.84963   0.86365   0.86607   0.86954
  Beta virt. eigenvalues --    0.87439   0.87869   0.88671   0.89920   0.90102
  Beta virt. eigenvalues --    0.90260   0.91262   0.91389   0.92047   0.92478
  Beta virt. eigenvalues --    0.93076   0.93103   0.94238   0.95474   0.96096
  Beta virt. eigenvalues --    0.98377   0.98517   0.99894   1.00619   1.01627
  Beta virt. eigenvalues --    1.02790   1.03270   1.04968   1.05199   1.06168
  Beta virt. eigenvalues --    1.06858   1.07201   1.07736   1.08849   1.10076
  Beta virt. eigenvalues --    1.10725   1.11372   1.13073   1.13136   1.13859
  Beta virt. eigenvalues --    1.14341   1.15312   1.15608   1.16722   1.17123
  Beta virt. eigenvalues --    1.18221   1.19132   1.21022   1.21635   1.23002
  Beta virt. eigenvalues --    1.24086   1.24267   1.25029   1.25648   1.26726
  Beta virt. eigenvalues --    1.27237   1.27970   1.29044   1.29122   1.29924
  Beta virt. eigenvalues --    1.30249   1.30979   1.32293   1.32520   1.33289
  Beta virt. eigenvalues --    1.34510   1.34626   1.36226   1.37644   1.37975
  Beta virt. eigenvalues --    1.38227   1.39375   1.40046   1.41169   1.41691
  Beta virt. eigenvalues --    1.42301   1.42782   1.43523   1.43949   1.44138
  Beta virt. eigenvalues --    1.44764   1.46326   1.47172   1.47881   1.47981
  Beta virt. eigenvalues --    1.48427   1.48894   1.49773   1.49965   1.49970
  Beta virt. eigenvalues --    1.51019   1.51799   1.52619   1.52934   1.53138
  Beta virt. eigenvalues --    1.54378   1.54587   1.55067   1.55521   1.56198
  Beta virt. eigenvalues --    1.56312   1.58454   1.58607   1.58640   1.58858
  Beta virt. eigenvalues --    1.60435   1.60793   1.61024   1.61211   1.61597
  Beta virt. eigenvalues --    1.61914   1.62762   1.62794   1.64665   1.65119
  Beta virt. eigenvalues --    1.65251   1.65692   1.66118   1.66772   1.67558
  Beta virt. eigenvalues --    1.67564   1.68223   1.68516   1.69078   1.70033
  Beta virt. eigenvalues --    1.71043   1.72062   1.73269   1.73331   1.73422
  Beta virt. eigenvalues --    1.74953   1.75348   1.76221   1.76607   1.77173
  Beta virt. eigenvalues --    1.77752   1.78483   1.78560   1.79431   1.79475
  Beta virt. eigenvalues --    1.79952   1.80407   1.80598   1.81693   1.82284
  Beta virt. eigenvalues --    1.82838   1.83070   1.83463   1.84248   1.85769
  Beta virt. eigenvalues --    1.89984   1.90074   1.91727   1.92120   1.92458
  Beta virt. eigenvalues --    1.93300   1.93362   1.94507   1.95607   1.95799
  Beta virt. eigenvalues --    1.96122   1.97260   1.97681   1.97975   1.99368
  Beta virt. eigenvalues --    1.99610   2.03852   2.04086   2.04703   2.04822
  Beta virt. eigenvalues --    2.05166   2.06193   2.07602   2.08249   2.08999
  Beta virt. eigenvalues --    2.10758   2.11201   2.11344   2.12608   2.12652
  Beta virt. eigenvalues --    2.13589   2.13768   2.15072   2.15941   2.15970
  Beta virt. eigenvalues --    2.16615   2.16823   2.18001   2.19442   2.19461
  Beta virt. eigenvalues --    2.20456   2.21883   2.23243   2.25239   2.25735
  Beta virt. eigenvalues --    2.28395   2.31695   2.31790   2.32526   2.33170
  Beta virt. eigenvalues --    2.33696   2.34577   2.34952   2.36290   2.38166
  Beta virt. eigenvalues --    2.40395   2.41012   2.41369   2.43677   2.43937
  Beta virt. eigenvalues --    2.45642   2.45754   2.46665   2.46789   2.46975
  Beta virt. eigenvalues --    2.47767   2.49531   2.50154   2.51062   2.51613
  Beta virt. eigenvalues --    2.52974   2.53923   2.54813   2.55074   2.55640
  Beta virt. eigenvalues --    2.57282   2.58909   2.58997   2.59721   2.59768
  Beta virt. eigenvalues --    2.61463   2.61891   2.63675   2.64760   2.64972
  Beta virt. eigenvalues --    2.65341   2.65884   2.67701   2.68307   2.68783
  Beta virt. eigenvalues --    2.69310   2.70806   2.71375   2.71868   2.72657
  Beta virt. eigenvalues --    2.72836   2.75624   2.75658   2.76715   2.79199
  Beta virt. eigenvalues --    2.79251   2.79703   2.79996   2.83552   2.83897
  Beta virt. eigenvalues --    2.84217   2.84963   2.85205   2.86000   2.86531
  Beta virt. eigenvalues --    2.87803   2.87942   2.88651   2.90620   2.90764
  Beta virt. eigenvalues --    2.91684   2.91905   2.92023   2.93147   2.94766
  Beta virt. eigenvalues --    2.94931   2.96456   2.97513   2.98130   2.98288
  Beta virt. eigenvalues --    2.99086   3.00295   3.01231   3.01915   3.03273
  Beta virt. eigenvalues --    3.03543   3.05133   3.06135   3.06187   3.08913
  Beta virt. eigenvalues --    3.10221   3.10808   3.13133   3.13222   3.14391
  Beta virt. eigenvalues --    3.15093   3.16197   3.18404   3.19616   3.20000
  Beta virt. eigenvalues --    3.20555   3.20932   3.21618   3.24086   3.24233
  Beta virt. eigenvalues --    3.28309   3.32259   3.36300   3.37670   3.38220
  Beta virt. eigenvalues --    3.38810   3.43538   3.44014   3.52127   3.55078
  Beta virt. eigenvalues --    3.57303   3.58015   3.58174   3.59546   3.60795
  Beta virt. eigenvalues --    3.61208   3.62116   3.62948   3.66625   3.66972
  Beta virt. eigenvalues --    3.70105   3.77793   3.79613   3.80100   3.83666
  Beta virt. eigenvalues --    3.85725   3.87249   3.87672   3.87927   3.88862
  Beta virt. eigenvalues --    3.90740   3.91956   3.93486   3.94958   3.96863
  Beta virt. eigenvalues --    3.98243   3.99176   4.03906   4.07619   4.12964
  Beta virt. eigenvalues --    4.15049   4.15895   4.18045   4.19822   4.20094
  Beta virt. eigenvalues --    4.23268   4.24915   4.26205   4.33455   4.36812
  Beta virt. eigenvalues --    4.40067   4.42616   4.62998   4.63621   4.77771
  Beta virt. eigenvalues --    4.88700   4.97920   5.03706   5.10008   5.14924
  Beta virt. eigenvalues --    5.15928   5.37295   5.45048   5.53382   5.56053
  Beta virt. eigenvalues --    6.28627   6.30199   6.46835   6.70898   6.90589
  Beta virt. eigenvalues --    8.46483   8.59300   8.60158  23.79681  23.80679
  Beta virt. eigenvalues --   23.83299  23.86405  23.87568  23.88722  23.89497
  Beta virt. eigenvalues --   23.91071  23.91245  23.93414  23.94557  23.95433
  Beta virt. eigenvalues --   23.95496  23.99965  24.01174  24.02388  24.13780
  Beta virt. eigenvalues --   24.14600  24.16321  28.27939  34.11011  34.19330
  Beta virt. eigenvalues --   34.20225  35.70244  35.70796  35.71958  35.77925
  Beta virt. eigenvalues --   50.03081  50.06777 153.97860 805.38218
          Condensed to atoms (all electrons):
          Atomic-Atomic Spin Densities.
 Mulliken charges and spin densities:
               1          2
     1  O   -0.356543  -0.003375
     2  H    0.320198   0.005992
     3  H    0.282195   0.006649
     4  Co  -2.608964   1.058825
     5  N    0.537919   0.004024
     6  C    0.270796  -0.026065
     7  C   -0.782190  -0.000835
     8  C   -0.836391   0.000568
     9  C    0.120708  -0.024169
    10  C   -0.229787   0.006430
    11  C    0.297424  -0.003875
    12  N    0.505468   0.006055
    13  C    0.445913  -0.004785
    14  C   -0.863922   0.004420
    15  C   -0.730535   0.003558
    16  C    0.445917  -0.004786
    17  N    0.505467   0.006056
    18  C    0.297419  -0.003875
    19  C   -0.730532   0.003558
    20  C   -0.863924   0.004420
    21  C    0.101846   0.003926
    22  C    0.120727  -0.024169
    23  N    0.537930   0.004024
    24  C    0.270810  -0.026064
    25  C   -0.782195  -0.000835
    26  C   -0.836396   0.000568
    27  C   -0.229800   0.006430
    28  H    0.346866  -0.000622
    29  H    0.346865  -0.000622
    30  H    0.288831  -0.000808
    31  H    0.290138  -0.000626
    32  H    0.290138  -0.000626
    33  H    0.206848  -0.000336
    34  H    0.256205  -0.000010
    35  H    0.244196  -0.000592
    36  H    0.233720  -0.000253
    37  H    0.274928  -0.000649
    38  H    0.252841  -0.000927
    39  H    0.244196  -0.000592
    40  H    0.206848  -0.000336
    41  H    0.256205  -0.000010
    42  H    0.252841  -0.000927
    43  H    0.233720  -0.000253
    44  H    0.245368  -0.000340
    45  H    0.245369  -0.000340
    46  H    0.276770  -0.001209
    47  H    0.274928  -0.000649
    48  H    0.276770  -0.001209
    49  O   -0.356540  -0.003375
    50  H    0.282195   0.006649
    51  H    0.320199   0.005992
 Sum of Mulliken charges =   1.00000   1.00000
 Mulliken charges and spin densities with hydrogens summed into heavy atoms:
               1          2
     1  O    0.245850   0.009265
     4  Co  -2.608964   1.058825
     5  N    0.537919   0.004024
     6  C    0.270796  -0.026065
     7  C   -0.261894  -0.001824
     8  C   -0.315425  -0.001234
     9  C    0.120708  -0.024169
    10  C    0.060350   0.005804
    11  C    0.297424  -0.003875
    12  N    0.505468   0.006055
    13  C    0.792778  -0.005407
    14  C   -0.400869   0.004074
    15  C   -0.243974   0.002378
    16  C    0.792782  -0.005408
    17  N    0.505467   0.006056
    18  C    0.297419  -0.003875
    19  C   -0.243972   0.002378
    20  C   -0.400871   0.004074
    21  C    0.390677   0.003118
    22  C    0.120727  -0.024169
    23  N    0.537930   0.004024
    24  C    0.270810  -0.026064
    25  C   -0.261899  -0.001824
    26  C   -0.315430  -0.001234
    27  C    0.060338   0.005804
    49  O    0.245854   0.009265
 Electronic spatial extent (au):  <R**2>=           7882.3112
 Charge=              1.0000 electrons
 Dipole moment (field-independent basis, Debye):
    X=              1.5245    Y=              0.0000    Z=              0.0000  Tot=              1.5245
 Quadrupole moment (field-independent basis, Debye-Ang):
   XX=           -112.0891   YY=           -112.7125   ZZ=           -140.8503
   XY=              0.0000   XZ=              0.0001   YZ=              0.5714
 Traceless Quadrupole moment (field-independent basis, Debye-Ang):
   XX=              9.7949   YY=              9.1715   ZZ=            -18.9664
   XY=              0.0000   XZ=              0.0001   YZ=              0.5714
 Octapole moment (field-independent basis, Debye-Ang**2):
  XXX=            -16.9394  YYY=              0.0000  ZZZ=             -0.0001  XYY=            -18.9125
  XXY=              0.0002  XXZ=              0.0000  XZZ=             22.9953  YZZ=              0.0000
  YYZ=              0.0001  XYZ=              0.5293
 Hexadecapole moment (field-independent basis, Debye-Ang**3):
 XXXX=          -4495.1762 YYYY=          -4225.4034 ZZZZ=           -524.2077 XXXY=             -0.0010
 XXXZ=             -0.0001 YYYX=              0.0005 YYYZ=            -20.2192 ZZZX=              0.0012
 ZZZY=              4.2802 XXYY=          -1344.1143 XXZZ=           -943.0572 YYZZ=           -885.2182
 XXYZ=              8.6032 YYXZ=              0.0000 ZZXY=             -0.0001
 N-N= 3.209285990415D+03 E-N=-1.227551734750D+04  KE= 2.485660172665D+03
                          Isotropic Fermi Contact Couplings
        Atom                 a.u.       MegaHertz       Gauss      10(-4) cm-1
     1  O(17)              0.09195     -55.74264     -19.89036     -18.59374
     2  H(1)               0.00002       0.09665       0.03449       0.03224
     3  H(1)               0.00000      -0.02069      -0.00738      -0.00690
     4  Co(59)             0.12993     137.45347      49.04682      45.84954
     5  N(14)             -0.00774      -2.50002      -0.89207      -0.83392
     6  C(13)             -0.00151      -1.69816      -0.60595      -0.56645
     7  C(13)              0.00013       0.15127       0.05398       0.05046
     8  C(13)              0.00035       0.38867       0.13869       0.12964
     9  C(13)             -0.00239      -2.68246      -0.95717      -0.89477
    10  C(13)              0.00150       1.68883       0.60262       0.56333
    11  C(13)             -0.00153      -1.72131      -0.61421      -0.57417
    12  N(14)             -0.01059      -3.42052      -1.22053      -1.14096
    13  C(13)              0.00006       0.06998       0.02497       0.02334
    14  C(13)             -0.00001      -0.00832      -0.00297      -0.00277
    15  C(13)             -0.00009      -0.10135      -0.03617      -0.03381
    16  C(13)              0.00006       0.06998       0.02497       0.02334
    17  N(14)             -0.01059      -3.42051      -1.22052      -1.14096
    18  C(13)             -0.00153      -1.72129      -0.61420      -0.57416
    19  C(13)             -0.00009      -0.10135      -0.03617      -0.03381
    20  C(13)             -0.00001      -0.00832      -0.00297      -0.00277
    21  C(13)              0.00172       1.93089       0.68899       0.64408
    22  C(13)             -0.00239      -2.68246      -0.95717      -0.89477
    23  N(14)             -0.00774      -2.50003      -0.89207      -0.83392
    24  C(13)             -0.00151      -1.69816      -0.60594      -0.56644
    25  C(13)              0.00013       0.15126       0.05397       0.05046
    26  C(13)              0.00035       0.38866       0.13868       0.12964
    27  C(13)              0.00150       1.68883       0.60262       0.56333
    28  H(1)               0.00022       0.97941       0.34948       0.32670
    29  H(1)               0.00022       0.97941       0.34948       0.32670
    30  H(1)              -0.00005      -0.21403      -0.07637      -0.07139
    31  H(1)              -0.00008      -0.34030      -0.12143      -0.11351
    32  H(1)              -0.00008      -0.34030      -0.12143      -0.11351
    33  H(1)               0.00001       0.04081       0.01456       0.01361
    34  H(1)              -0.00004      -0.18239      -0.06508      -0.06084
    35  H(1)              -0.00032      -1.43083      -0.51056      -0.47727
    36  H(1)              -0.00019      -0.87106      -0.31082      -0.29055
    37  H(1)              -0.00030      -1.35867      -0.48481      -0.45320
    38  H(1)              -0.00039      -1.74282      -0.62188      -0.58134
    39  H(1)              -0.00032      -1.43076      -0.51053      -0.47725
    40  H(1)               0.00001       0.04081       0.01456       0.01361
    41  H(1)              -0.00004      -0.18239      -0.06508      -0.06084
    42  H(1)              -0.00039      -1.74283      -0.62188      -0.58134
    43  H(1)              -0.00019      -0.87105      -0.31081      -0.29055
    44  H(1)              -0.00017      -0.77712      -0.27730      -0.25922
    45  H(1)              -0.00017      -0.77717      -0.27731      -0.25924
    46  H(1)              -0.00052      -2.30611      -0.82288      -0.76923
    47  H(1)              -0.00030      -1.35864      -0.48480      -0.45320
    48  H(1)              -0.00052      -2.30608      -0.82287      -0.76923
    49  O(17)              0.09196     -55.74356     -19.89069     -18.59405
    50  H(1)               0.00000      -0.02061      -0.00736      -0.00688
    51  H(1)               0.00002       0.09664       0.03449       0.03224
 --------------------------------------------------------
       Center         ----  Spin Dipole Couplings  ----
                      3XX-RR        3YY-RR        3ZZ-RR
 --------------------------------------------------------
     1   Atom       -0.062144     -0.080675      0.142818
     2   Atom       -0.010808     -0.003145      0.013953
     3   Atom       -0.007731     -0.003519      0.011250
     4   Atom       -1.448513     -1.280069      2.728582
     5   Atom       -0.002420      0.000525      0.001895
     6   Atom        0.003192      0.014185     -0.017377
     7   Atom       -0.000538      0.001953     -0.001415
     8   Atom        0.001789     -0.000376     -0.001413
     9   Atom        0.017416      0.008283     -0.025699
    10   Atom       -0.008192      0.004860      0.003332
    11   Atom        0.006179      0.013997     -0.020176
    12   Atom       -0.011606     -0.000595      0.012201
    13   Atom        0.008753     -0.004441     -0.004311
    14   Atom        0.002630     -0.001005     -0.001625
    15   Atom       -0.000261      0.001387     -0.001126
    16   Atom        0.008753     -0.004441     -0.004311
    17   Atom       -0.011606     -0.000595      0.012201
    18   Atom        0.006179      0.013997     -0.020176
    19   Atom       -0.000261      0.001387     -0.001126
    20   Atom        0.002630     -0.001005     -0.001625
    21   Atom        0.006086     -0.007941      0.001855
    22   Atom        0.017416      0.008283     -0.025699
    23   Atom       -0.002420      0.000526      0.001895
    24   Atom        0.003191      0.014185     -0.017377
    25   Atom       -0.000538      0.001953     -0.001415
    26   Atom        0.001789     -0.000376     -0.001413
    27   Atom       -0.008192      0.004860      0.003332
    28   Atom        0.006119     -0.004146     -0.001973
    29   Atom        0.006119     -0.004146     -0.001973
    30   Atom        0.003595     -0.002204     -0.001391
    31   Atom       -0.002182      0.003606     -0.001424
    32   Atom       -0.002182      0.003606     -0.001424
    33   Atom        0.002281     -0.000943     -0.001339
    34   Atom        0.001773     -0.000727     -0.001046
    35   Atom        0.001202     -0.000254     -0.000949
    36   Atom        0.000116      0.000934     -0.001050
    37   Atom       -0.000340      0.001397     -0.001057
    38   Atom        0.000218      0.000894     -0.001112
    39   Atom        0.001202     -0.000254     -0.000949
    40   Atom        0.002281     -0.000943     -0.001339
    41   Atom        0.001773     -0.000727     -0.001047
    42   Atom        0.000218      0.000894     -0.001112
    43   Atom        0.000116      0.000934     -0.001050
    44   Atom       -0.000385      0.001341     -0.000956
    45   Atom       -0.000385      0.001341     -0.000956
    46   Atom        0.001186     -0.000150     -0.001036
    47   Atom       -0.000340      0.001397     -0.001057
    48   Atom        0.001186     -0.000150     -0.001036
    49   Atom       -0.062143     -0.080675      0.142818
    50   Atom       -0.007731     -0.003519      0.011251
    51   Atom       -0.010808     -0.003145      0.013953
 --------------------------------------------------------
                        XY            XZ            YZ
 --------------------------------------------------------
     1   Atom        0.009369     -0.063833     -0.030158
     2   Atom        0.001935      0.001147      0.008731
     3   Atom       -0.005059      0.004630     -0.009758
     4   Atom       -0.000002      0.000006     -0.326023
     5   Atom       -0.012453     -0.001978      0.002568
     6   Atom       -0.004947      0.000602     -0.001594
     7   Atom       -0.002035      0.000075     -0.000038
     8   Atom       -0.001998     -0.000057      0.000073
     9   Atom       -0.006087      0.000093      0.000755
    10   Atom        0.001055     -0.000593      0.000726
    11   Atom        0.006251      0.002208     -0.000824
    12   Atom        0.008922     -0.002626      0.001446
    13   Atom        0.005409      0.001405      0.000706
    14   Atom        0.002387     -0.000020      0.000005
    15   Atom        0.001955      0.000074      0.000067
    16   Atom       -0.005409     -0.001405      0.000706
    17   Atom       -0.008922      0.002626      0.001446
    18   Atom       -0.006251     -0.002208     -0.000824
    19   Atom       -0.001955     -0.000074      0.000067
    20   Atom       -0.002387      0.000020      0.000005
    21   Atom        0.000000      0.000000     -0.000370
    22   Atom        0.006087     -0.000093      0.000755
    23   Atom        0.012453      0.001977      0.002568
    24   Atom        0.004947     -0.000602     -0.001595
    25   Atom        0.002035     -0.000075     -0.000038
    26   Atom        0.001998      0.000057      0.000073
    27   Atom       -0.001055      0.000593      0.000727
    28   Atom        0.001831      0.004615      0.000851
    29   Atom       -0.001831     -0.004615      0.000851
    30   Atom        0.000000      0.000000     -0.000023
    31   Atom       -0.000447      0.000037     -0.000047
    32   Atom        0.000447     -0.000037     -0.000047
    33   Atom       -0.001847      0.000996     -0.000516
    34   Atom       -0.001216     -0.000245      0.000114
    35   Atom       -0.001416      0.000229     -0.000191
    36   Atom       -0.001590      0.000156     -0.000126
    37   Atom        0.001598     -0.000396     -0.000582
    38   Atom       -0.001788     -0.000544      0.000610
    39   Atom        0.001416     -0.000229     -0.000191
    40   Atom        0.001847     -0.000996     -0.000516
    41   Atom        0.001216      0.000245      0.000114
    42   Atom        0.001788      0.000544      0.000610
    43   Atom        0.001590     -0.000156     -0.000126
    44   Atom        0.001362      0.000165      0.000213
    45   Atom       -0.001362     -0.000165      0.000213
    46   Atom        0.001584      0.000463      0.000340
    47   Atom       -0.001598      0.000396     -0.000582
    48   Atom       -0.001584     -0.000463      0.000340
    49   Atom       -0.009369      0.063836     -0.030157
    50   Atom        0.005059     -0.004630     -0.009758
    51   Atom       -0.001935     -0.001146      0.008731
 --------------------------------------------------------


 ---------------------------------------------------------------------------------
              Anisotropic Spin Dipole Couplings in Principal Axis System
 ---------------------------------------------------------------------------------

       Atom             a.u.   MegaHertz   Gauss  10(-4) cm-1        Axes

              Baa    -0.0848     6.139     2.191     2.048 -0.1862  0.9794  0.0775
     1 O(17)  Bbb    -0.0803     5.809     2.073     1.938  0.9438  0.1564  0.2912
              Bcc     0.1651   -11.949    -4.264    -3.986 -0.2731 -0.1274  0.9535
 
              Baa    -0.0113    -6.039    -2.155    -2.014  0.9568 -0.2855  0.0552
     2 H(1)   Bbb    -0.0064    -3.425    -1.222    -1.142  0.2838  0.8755 -0.3912
              Bcc     0.0177     9.464     3.377     3.157  0.0633  0.3899  0.9187
 
              Baa    -0.0113    -6.031    -2.152    -2.012  0.7531  0.6460  0.1249
     3 H(1)   Bbb    -0.0064    -3.427    -1.223    -1.143 -0.6103  0.6149  0.4994
              Bcc     0.0177     9.458     3.375     3.155  0.2458 -0.4523  0.8573
 
              Baa    -1.4485  -182.917   -65.269   -61.015  1.0000  0.0000  0.0000
     4 Co(59) Bbb    -1.3064  -164.972   -58.866   -55.029  0.0000  0.9968  0.0805
              Bcc     2.7549   347.890   124.136   116.043  0.0000 -0.0805  0.9968
 
              Baa    -0.0135    -0.520    -0.186    -0.174  0.7461  0.6657 -0.0152
     5 N(14)  Bbb     0.0009     0.035     0.013     0.012  0.2039 -0.2066  0.9569
              Bcc     0.0126     0.485     0.173     0.162 -0.6339  0.7171  0.2899
 
              Baa    -0.0175    -2.343    -0.836    -0.782 -0.0177  0.0475  0.9987
     6 C(13)  Bbb     0.0013     0.174     0.062     0.058  0.9336  0.3582 -0.0005
              Bcc     0.0162     2.170     0.774     0.724 -0.3578  0.9324 -0.0507
 
              Baa    -0.0017    -0.226    -0.081    -0.075  0.8608  0.4796 -0.1703
     7 C(13)  Bbb    -0.0014    -0.189    -0.067    -0.063  0.1412  0.0965  0.9853
              Bcc     0.0031     0.415     0.148     0.139 -0.4889  0.8722 -0.0153
 
              Baa    -0.0016    -0.211    -0.075    -0.070  0.4970  0.8422 -0.2092
     8 C(13)  Bbb    -0.0014    -0.189    -0.067    -0.063  0.1235  0.1699  0.9777
              Bcc     0.0030     0.400     0.143     0.133  0.8589 -0.5117 -0.0196
 
              Baa    -0.0257    -3.451    -1.231    -1.151 -0.0054 -0.0232  0.9997
     9 C(13)  Bbb     0.0053     0.705     0.252     0.235  0.4474  0.8940  0.0232
              Bcc     0.0205     2.746     0.980     0.916  0.8943 -0.4474 -0.0055
 
              Baa    -0.0083    -1.116    -0.398    -0.372  0.9950 -0.0827  0.0558
    10 C(13)  Bbb     0.0031     0.418     0.149     0.140 -0.0809 -0.3415  0.9364
              Bcc     0.0052     0.697     0.249     0.233  0.0584  0.9362  0.3465
 
              Baa    -0.0204    -2.739    -0.977    -0.914 -0.0921  0.0406  0.9949
    11 C(13)  Bbb     0.0030     0.396     0.141     0.132  0.8691 -0.4843  0.1002
              Bcc     0.0175     2.343     0.836     0.782  0.4859  0.8740  0.0094
 
              Baa    -0.0169    -0.652    -0.232    -0.217  0.8687 -0.4846  0.1025
    12 N(14)  Bbb     0.0044     0.169     0.060     0.056  0.4870  0.8734  0.0020
              Bcc     0.0125     0.482     0.172     0.161 -0.0905  0.0481  0.9947
 
              Baa    -0.0064    -0.858    -0.306    -0.286 -0.3266  0.9401 -0.0982
    13 C(13)  Bbb    -0.0045    -0.598    -0.213    -0.199 -0.1293  0.0585  0.9899
              Bcc     0.0108     1.456     0.519     0.486  0.9363  0.3360  0.1024
 
              Baa    -0.0022    -0.294    -0.105    -0.098 -0.4439  0.8958 -0.0233
    14 C(13)  Bbb    -0.0016    -0.218    -0.078    -0.073 -0.0077  0.0222  0.9997
              Bcc     0.0038     0.512     0.183     0.171  0.8961  0.4439 -0.0030
 
              Baa    -0.0016    -0.209    -0.075    -0.070  0.8326 -0.5510 -0.0573
    15 C(13)  Bbb    -0.0011    -0.151    -0.054    -0.050  0.0337 -0.0529  0.9980
              Bcc     0.0027     0.361     0.129     0.120  0.5529  0.8329  0.0254
 
              Baa    -0.0064    -0.858    -0.306    -0.286  0.3266  0.9401 -0.0982
    16 C(13)  Bbb    -0.0045    -0.598    -0.213    -0.199  0.1293  0.0585  0.9899
              Bcc     0.0108     1.456     0.519     0.486  0.9363 -0.3360 -0.1024
 
              Baa    -0.0169    -0.652    -0.232    -0.217  0.8687  0.4846 -0.1025
    17 N(14)  Bbb     0.0044     0.169     0.060     0.056 -0.4870  0.8734  0.0020
              Bcc     0.0125     0.482     0.172     0.161  0.0905  0.0481  0.9947
 
              Baa    -0.0204    -2.739    -0.977    -0.914  0.0921  0.0406  0.9949
    18 C(13)  Bbb     0.0030     0.396     0.141     0.132  0.8691  0.4843 -0.1002
              Bcc     0.0175     2.343     0.836     0.782 -0.4859  0.8739  0.0094
 
              Baa    -0.0016    -0.209    -0.075    -0.070  0.8326  0.5510  0.0573
    19 C(13)  Bbb    -0.0011    -0.151    -0.054    -0.050 -0.0337 -0.0529  0.9980
              Bcc     0.0027     0.361     0.129     0.120 -0.5529  0.8329  0.0254
 
              Baa    -0.0022    -0.294    -0.105    -0.098  0.4439  0.8958 -0.0233
    20 C(13)  Bbb    -0.0016    -0.218    -0.078    -0.073  0.0077  0.0222  0.9997
              Bcc     0.0038     0.512     0.183     0.171  0.8961 -0.4439  0.0030
 
              Baa    -0.0080    -1.068    -0.381    -0.356  0.0000  0.9993  0.0377
    21 C(13)  Bbb     0.0019     0.251     0.089     0.084  0.0000 -0.0377  0.9993
              Bcc     0.0061     0.817     0.291     0.272  1.0000  0.0000  0.0000
 
              Baa    -0.0257    -3.451    -1.231    -1.151  0.0054 -0.0232  0.9997
    22 C(13)  Bbb     0.0053     0.705     0.252     0.235 -0.4474  0.8940  0.0232
              Bcc     0.0205     2.746     0.980     0.916  0.8943  0.4474  0.0055
 
              Baa    -0.0135    -0.520    -0.186    -0.174  0.7461 -0.6657  0.0152
    23 N(14)  Bbb     0.0009     0.035     0.013     0.012 -0.2038 -0.2066  0.9570
              Bcc     0.0126     0.485     0.173     0.162  0.6339  0.7171  0.2898
 
              Baa    -0.0175    -2.343    -0.836    -0.782  0.0177  0.0476  0.9987
    24 C(13)  Bbb     0.0013     0.174     0.062     0.058  0.9336 -0.3582  0.0005
              Bcc     0.0162     2.170     0.774     0.724  0.3578  0.9324 -0.0507
 
              Baa    -0.0017    -0.226    -0.081    -0.075  0.8608 -0.4796  0.1703
    25 C(13)  Bbb    -0.0014    -0.189    -0.067    -0.063 -0.1412  0.0965  0.9853
              Bcc     0.0031     0.415     0.148     0.139  0.4889  0.8722 -0.0154
 
              Baa    -0.0016    -0.211    -0.075    -0.070 -0.4970  0.8422 -0.2092
    26 C(13)  Bbb    -0.0014    -0.189    -0.067    -0.063 -0.1236  0.1699  0.9777
              Bcc     0.0030     0.400     0.143     0.133  0.8589  0.5117  0.0196
 
              Baa    -0.0083    -1.116    -0.398    -0.372  0.9950  0.0827 -0.0558
    27 C(13)  Bbb     0.0031     0.418     0.149     0.140  0.0809 -0.3415  0.9364
              Bcc     0.0052     0.697     0.249     0.233 -0.0584  0.9362  0.3465
 
              Baa    -0.0045    -2.384    -0.851    -0.795 -0.1239  0.9865 -0.1072
    28 H(1)   Bbb    -0.0041    -2.168    -0.774    -0.723 -0.4192  0.0459  0.9067
              Bcc     0.0085     4.552     1.624     1.518  0.8994  0.1573  0.4078
 
              Baa    -0.0045    -2.384    -0.851    -0.795  0.1239  0.9865 -0.1072
    29 H(1)   Bbb    -0.0041    -2.168    -0.774    -0.723  0.4192  0.0459  0.9067
              Bcc     0.0085     4.552     1.624     1.518  0.8994 -0.1573 -0.4078
 
              Baa    -0.0022    -1.176    -0.420    -0.392  0.0000  0.9996  0.0281
    30 H(1)   Bbb    -0.0014    -0.742    -0.265    -0.247  0.0000 -0.0281  0.9996
              Bcc     0.0036     1.918     0.684     0.640  1.0000  0.0000  0.0000
 
              Baa    -0.0022    -1.183    -0.422    -0.395  0.9962  0.0761 -0.0423
    31 H(1)   Bbb    -0.0014    -0.759    -0.271    -0.253  0.0414  0.0131  0.9991
              Bcc     0.0036     1.943     0.693     0.648 -0.0766  0.9970 -0.0099
 
              Baa    -0.0022    -1.183    -0.422    -0.395  0.9962 -0.0761  0.0423
    32 H(1)   Bbb    -0.0014    -0.759    -0.271    -0.253 -0.0414  0.0131  0.9991
              Bcc     0.0036     1.943     0.693     0.648  0.0766  0.9970 -0.0099
 
              Baa    -0.0018    -0.960    -0.342    -0.320  0.3414  0.9001  0.2708
    33 H(1)   Bbb    -0.0016    -0.847    -0.302    -0.283 -0.3174 -0.1608  0.9346
              Bcc     0.0034     1.807     0.645     0.603  0.8847 -0.4050  0.2308
 
              Baa    -0.0012    -0.652    -0.233    -0.217  0.3687  0.9255 -0.0868
    34 H(1)   Bbb    -0.0011    -0.569    -0.203    -0.190  0.1073  0.0503  0.9929
              Bcc     0.0023     1.221     0.436     0.407  0.9233 -0.3754 -0.0808
 
              Baa    -0.0011    -0.603    -0.215    -0.201  0.4794  0.8340  0.2731
    35 H(1)   Bbb    -0.0010    -0.515    -0.184    -0.172 -0.2224 -0.1856  0.9571
              Bcc     0.0021     1.118     0.399     0.373  0.8489 -0.5196  0.0965
 
              Baa    -0.0011    -0.610    -0.218    -0.203  0.7051  0.5100 -0.4926
    36 H(1)   Bbb    -0.0010    -0.553    -0.197    -0.184  0.3577  0.3440  0.8682
              Bcc     0.0022     1.163     0.415     0.388 -0.6123  0.7884 -0.0601
 
              Baa    -0.0013    -0.697    -0.249    -0.232  0.8367 -0.4184  0.3534
    37 H(1)   Bbb    -0.0012    -0.630    -0.225    -0.210 -0.2161  0.3406  0.9150
              Bcc     0.0025     1.327     0.473     0.443  0.5032  0.8420 -0.1945
 
              Baa    -0.0013    -0.700    -0.250    -0.233  0.5180  0.1891  0.8342
    38 H(1)   Bbb    -0.0012    -0.665    -0.237    -0.222  0.5850  0.6332 -0.5068
              Bcc     0.0026     1.364     0.487     0.455 -0.6241  0.7505  0.2174
 
              Baa    -0.0011    -0.603    -0.215    -0.201 -0.4794  0.8340  0.2731
    39 H(1)   Bbb    -0.0010    -0.515    -0.184    -0.172  0.2224 -0.1856  0.9571
              Bcc     0.0021     1.118     0.399     0.373  0.8489  0.5196 -0.0965
 
              Baa    -0.0018    -0.960    -0.342    -0.320 -0.3414  0.9001  0.2708
    40 H(1)   Bbb    -0.0016    -0.847    -0.302    -0.283  0.3174 -0.1608  0.9346
              Bcc     0.0034     1.807     0.645     0.603  0.8847  0.4050 -0.2308
 
              Baa    -0.0012    -0.652    -0.233    -0.217 -0.3687  0.9255 -0.0868
    41 H(1)   Bbb    -0.0011    -0.569    -0.203    -0.190 -0.1073  0.0503  0.9929
              Bcc     0.0023     1.221     0.436     0.407  0.9233  0.3754  0.0808
 
              Baa    -0.0013    -0.700    -0.250    -0.233 -0.5180  0.1891  0.8342
    42 H(1)   Bbb    -0.0012    -0.665    -0.237    -0.222 -0.5850  0.6332 -0.5068
              Bcc     0.0026     1.364     0.487     0.455  0.6241  0.7505  0.2174
 
              Baa    -0.0011    -0.610    -0.218    -0.203  0.7051 -0.5100  0.4926
    43 H(1)   Bbb    -0.0010    -0.553    -0.197    -0.184 -0.3577  0.3440  0.8682
              Bcc     0.0022     1.163     0.415     0.388  0.6122  0.7884 -0.0601
 
              Baa    -0.0011    -0.611    -0.218    -0.204  0.8594 -0.4499 -0.2431
    44 H(1)   Bbb    -0.0010    -0.517    -0.184    -0.172  0.1732 -0.1913  0.9661
              Bcc     0.0021     1.128     0.402     0.376  0.4812  0.8724  0.0865
 
              Baa    -0.0011    -0.611    -0.218    -0.204  0.8593  0.4499  0.2431
    45 H(1)   Bbb    -0.0010    -0.517    -0.184    -0.172 -0.1732 -0.1913  0.9661
              Bcc     0.0021     1.128     0.402     0.376 -0.4812  0.8723  0.0865
 
              Baa    -0.0012    -0.646    -0.230    -0.215 -0.4761  0.8161 -0.3275
    46 H(1)   Bbb    -0.0011    -0.600    -0.214    -0.200 -0.3157  0.1890  0.9298
              Bcc     0.0023     1.246     0.444     0.415  0.8208  0.5461  0.1677
 
              Baa    -0.0013    -0.697    -0.249    -0.232  0.8367  0.4184 -0.3534
    47 H(1)   Bbb    -0.0012    -0.630    -0.225    -0.210  0.2161  0.3406  0.9150
              Bcc     0.0025     1.327     0.473     0.443 -0.5032  0.8420 -0.1945
 
              Baa    -0.0012    -0.646    -0.230    -0.215  0.4761  0.8161 -0.3275
    48 H(1)   Bbb    -0.0011    -0.600    -0.214    -0.200  0.3157  0.1890  0.9298
              Bcc     0.0023     1.245     0.444     0.415  0.8208 -0.5461 -0.1677
 
              Baa    -0.0848     6.139     2.191     2.048  0.1862  0.9794  0.0775
    49 O(17)  Bbb    -0.0803     5.809     2.073     1.938  0.9438 -0.1564 -0.2912
              Bcc     0.1651   -11.949    -4.264    -3.986  0.2731 -0.1274  0.9535
 
              Baa    -0.0113    -6.031    -2.152    -2.012  0.7531 -0.6460 -0.1249
    50 H(1)   Bbb    -0.0064    -3.427    -1.223    -1.143  0.6103  0.6149  0.4994
              Bcc     0.0177     9.458     3.375     3.155 -0.2458 -0.4523  0.8573
 
              Baa    -0.0113    -6.039    -2.155    -2.015  0.9568  0.2855 -0.0552
    51 H(1)   Bbb    -0.0064    -3.425    -1.222    -1.142 -0.2838  0.8755 -0.3912
              Bcc     0.0177     9.464     3.377     3.157 -0.0633  0.3899  0.9187
 

 ---------------------------------------------------------------------------------

 1\1\GINC-NID04800\SP\UTPSSh\6-311++G(d,p)\C19H25Co1N4O2(1+,2)\SHOSTY\1
 0-Nov-2015\0\\# tpssh/6-311++G(d,p) integral=ultrafine scf=tight\\H2O.
 Co.2.Corrin.H2O\\1,2\O,0,-0.182428,0.206267,-2.306619\H,0,0.065529,-0.
 609522,-2.7851\H,0,0.392992,0.903937,-2.678368\Co,0,-0.030963,0.,-0.00
 0001\N,0,-1.326193,-1.415207,-0.035824\C,0,-1.039803,-2.773733,0.03467
 3\C,0,-2.311344,-3.593028,0.168131\C,0,-3.426992,-2.556575,-0.064304\C
 ,0,-2.679085,-1.238636,-0.027661\C,0,0.224801,-3.32397,0.015984\C,0,1.
 405957,-2.546253,-0.096571\N,0,1.366297,-1.22372,-0.145445\C,0,2.73041
 5,-0.666532,-0.372121\C,0,3.671073,-1.802138,0.072943\C,0,2.827634,-3.
 070936,-0.211231\C,0,2.730417,0.666519,0.372125\N,0,1.366303,1.223714,
 0.145445\C,0,1.405968,2.546247,0.096574\C,0,2.827647,3.070923,0.21124\
 C,0,3.671081,1.802121,-0.072935\C,0,-3.314357,0.000007,0.000004\C,0,-2
 .679079,1.238647,0.027666\N,0,-1.326186,1.415212,0.035822\C,0,-1.03979
 ,2.773737,-0.03468\C,0,-2.311328,3.593034,-0.168149\C,0,-3.426978,2.55
 6591,0.064317\C,0,0.224816,3.323969,-0.015986\H,0,2.843799,-0.465782,-
 1.452107\H,0,2.843797,0.465768,1.452112\H,0,-4.402474,0.00001,0.000008
 \H,0,0.317579,4.405354,-0.083599\H,0,0.317559,-4.405356,0.083595\H,0,3
 .870695,1.718408,-1.150872\H,0,4.630925,1.794981,0.454413\H,0,-4.22119
 ,-2.593578,0.691038\H,0,3.027942,3.895313,-0.484156\H,0,-2.368654,4.02
 7642,-1.17642\H,0,3.005459,3.4557,1.228105\H,0,-4.221194,2.593596,-0.6
 91005\H,0,3.870685,-1.718423,1.15088\H,0,4.630918,-1.795003,-0.454403\
 H,0,3.005447,-3.455718,-1.228094\H,0,3.027923,-3.895325,0.484167\H,0,-
 2.332577,4.426171,0.544365\H,0,-2.3326,-4.426145,-0.544407\H,0,-3.9076
 06,2.685628,1.045314\H,0,-2.368666,-4.027664,1.176388\H,0,-3.907647,-2
 .685602,-1.045288\O,0,-0.182445,-0.206261,2.306609\H,0,0.392972,-0.903
 928,2.67837\H,0,0.065503,0.609532,2.785088\\Version=AS64L-G09RevD.01\S
 tate=2-A\HF=-2491.6051039\S2=0.760291\S2-1=0.\S2A=0.750084\RMSD=2.059e
 -09\Dipole=0.599766,-0.0000002,0.0000104\Quadrupole=7.2822507,6.818774
 2,-14.1010249,0.0000074,-0.0000593,0.424822\PG=C01 [X(C19H25Co1N4O2)]\
 \@


 The mind is not a vessel to be filled but a fire to be kindled.
                                  -- Plutarch
 Job cpu time:       0 days  0 hours  1 minutes 28.5 seconds.
 File lengths (MBytes):  RWF=    565 Int=      0 D2E=      0 Chk=     29 Scr=      1
 Normal termination of Gaussian 09 at Tue Nov 10 08:25:03 2015.
