 Entering GApplication 60493678 resources: utime ~155131s, stime ~1765s, Rss ~1280392, inblocks ~74824513, outblocks ~18527475
.cp2.com
 Output=/global/homes/s/shosty/tpss/H2O.Co.2.Corrin.H2O/H2O.Co.2.Corrin.H2O.tpss.6311ppgdp.cp2.log
 Initial command:
 /usr/common/usg/g09/d1/g09/l1.exe "/scratch/scratchdirs/shosty/g09/13529004.hopque01/Gau-26435.inp" -scrdir="/scratch/scratchdirs/shosty/g09/13529004.hopque01/"
 Entering Link 1 = /usr/common/usg/g09/d1/g09/l1.exe PID=     26436.
  
 Copyright (c) 1988,1990,1992,1993,1995,1998,2003,2009,2013,
            Gaussian, Inc.  All Rights Reserved.
  
 This is part of the Gaussian(R) 09 program.  It is based on
 the Gaussian(R) 03 system (copyright 2003, Gaussian, Inc.),
 the Gaussian(R) 98 system (copyright 1998, Gaussian, Inc.),
 the Gaussian(R) 94 system (copyright 1995, Gaussian, Inc.),
 the Gaussian 92(TM) system (copyright 1992, Gaussian, Inc.),
 the Gaussian 90(TM) system (copyright 1990, Gaussian, Inc.),
 the Gaussian 88(TM) system (copyright 1988, Gaussian, Inc.),
 the Gaussian 86(TM) system (copyright 1986, Carnegie Mellon
 University), and the Gaussian 82(TM) system (copyright 1983,
 Carnegie Mellon University). Gaussian is a federally registered
 trademark of Gaussian, Inc.
  
 This software contains proprietary and confidential information,
 including trade secrets, belonging to Gaussian, Inc.
  
 This software is provided under written license and may be
 used, copied, transmitted, or stored only in accord with that
 written license.
  
 The following legend is applicable only to US Government
 contracts under FAR:
  
                    RESTRICTED RIGHTS LEGEND
  
 Use, reproduction and disclosure by the US Government is
 subject to restrictions as set forth in subparagraphs (a)
 and (c) of the Commercial Computer Software - Restricted
 Rights clause in FAR 52.227-19.
  
 Gaussian, Inc.
 340 Quinnipiac St., Bldg. 40, Wallingford CT 06492
  
  
 ---------------------------------------------------------------
 Warning -- This program may not be used in any manner that
 competes with the business of Gaussian, Inc. or will provide
 assistance to any competitor of Gaussian, Inc.  The licensee
 of this program is prohibited from giving any competitor of
 Gaussian, Inc. access to this program.  By using this program,
 the user acknowledges that Gaussian, Inc. is engaged in the
 business of creating and licensing software in the field of
 computational chemistry and represents and warrants to the
 licensee that it is not a competitor of Gaussian, Inc. and that
 it will not use this program in any manner prohibited above.
 ---------------------------------------------------------------
  

 Cite this work as:
 Gaussian 09, Revision D.01,
 M. J. Frisch, G. W. Trucks, H. B. Schlegel, G. E. Scuseria, 
 M. A. Robb, J. R. Cheeseman, G. Scalmani, V. Barone, B. Mennucci, 
 G. A. Petersson, H. Nakatsuji, M. Caricato, X. Li, H. P. Hratchian, 
 A. F. Izmaylov, J. Bloino, G. Zheng, J. L. Sonnenberg, M. Hada, 
 M. Ehara, K. Toyota, R. Fukuda, J. Hasegawa, M. Ishida, T. Nakajima, 
 Y. Honda, O. Kitao, H. Nakai, T. Vreven, J. A. Montgomery, Jr., 
 J. E. Peralta, F. Ogliaro, M. Bearpark, J. J. Heyd, E. Brothers, 
 K. N. Kudin, V. N. Staroverov, T. Keith, R. Kobayashi, J. Normand, 
 K. Raghavachari, A. Rendell, J. C. Burant, S. S. Iyengar, J. Tomasi, 
 M. Cossi, N. Rega, J. M. Millam, M. Klene, J. E. Knox, J. B. Cross, 
 V. Bakken, C. Adamo, J. Jaramillo, R. Gomperts, R. E. Stratmann, 
 O. Yazyev, A. J. Austin, R. Cammi, C. Pomelli, J. W. Ochterski, 
 R. L. Martin, K. Morokuma, V. G. Zakrzewski, G. A. Voth, 
 P. Salvador, J. J. Dannenberg, S. Dapprich, A. D. Daniels, 
 O. Farkas, J. B. Foresman, J. V. Ortiz, J. Cioslowski, 
 and D. J. Fox, Gaussian, Inc., Wallingford CT, 2013.
 
 ******************************************
 Gaussian 09:  AS64L-G09RevD.01 24-Apr-2013
                 2-Nov-2015 
 ******************************************
 %nproc=24
 Will use up to   24 processors via shared memory.
 %chk=H2O.Co.2.Corrin.H2O.chk
 %mem=7000mb
 --------------------------------------------------------------------
 # tpsstpss/6-311++G(d,p) integral=ultrafine scf=tight counterpoise=2
 --------------------------------------------------------------------
 1/38=1,62=2/1;
 2/12=2,17=6,18=5,40=1/2;
 1/38=1,53=2,62=2,63=1/22;
 3/5=4,6=6,7=1111,11=2,16=1,25=1,30=1,74=2523,75=-5/1,2,3;
 4//1;
 5/5=2,32=2,38=5/2;
 6/7=2,8=2,9=2,10=2,28=1/1;
 1/53=2,62=2,63=1/22;
 3/5=7,6=11,7=1111,11=2,16=1,25=1,30=1,74=2523,75=-5,82=7/1,2,3;
 4//1;
 5/5=2,32=2,38=5/2;
 6/7=2,8=2,9=2,10=2,28=1/1;
 1/53=2,62=2,63=1/22(-4);
 99/5=1,9=1/99;
 -------------------
 H2O.Co.2.Corrin.H2O
 -------------------
 Symbolic Z-matrix:
 Charge =  1 Multiplicity = 2 in supermolecule
 Charge =  0 Multiplicity = 1 in fragment      1.
 Charge =  1 Multiplicity = 2 in fragment      2.
 O(Fragment=1)        -0.18243   0.20627  -2.30662 
 H(Fragment=1)         0.06553  -0.60952  -2.7851 
 H(Fragment=1)         0.39299   0.90394  -2.67837 
 Co(Fragment=2)       -0.03096   0.       0. 
 N(Fragment=2)        -1.32619  -1.41521  -0.03582 
 C(Fragment=2)        -1.0398   -2.77373   0.03467 
 C(Fragment=2)        -2.31134  -3.59303   0.16813 
 C(Fragment=2)        -3.42699  -2.55658  -0.0643 
 C(Fragment=2)        -2.67909  -1.23864  -0.02766 
 C(Fragment=2)         0.2248   -3.32397   0.01598 
 C(Fragment=2)         1.40596  -2.54625  -0.09657 
 N(Fragment=2)         1.3663   -1.22372  -0.14545 
 C(Fragment=2)         2.73042  -0.66653  -0.37212 
 C(Fragment=2)         3.67107  -1.80214   0.07294 
 C(Fragment=2)         2.82763  -3.07094  -0.21123 
 C(Fragment=2)         2.73042   0.66652   0.37213 
 N(Fragment=2)         1.3663    1.22371   0.14545 
 C(Fragment=2)         1.40597   2.54625   0.09657 
 C(Fragment=2)         2.82765   3.07092   0.21124 
 C(Fragment=2)         3.67108   1.80212  -0.07294 
 C(Fragment=2)        -3.31436   0.00001   0. 
 C(Fragment=2)        -2.67908   1.23865   0.02767 
 N(Fragment=2)        -1.32619   1.41521   0.03582 
 C(Fragment=2)        -1.03979   2.77374  -0.03468 
 C(Fragment=2)        -2.31133   3.59303  -0.16815 
 C(Fragment=2)        -3.42698   2.55659   0.06432 
 C(Fragment=2)         0.22482   3.32397  -0.01599 
 H(Fragment=2)         2.8438   -0.46578  -1.45211 
 H(Fragment=2)         2.8438    0.46577   1.45211 
 H(Fragment=2)        -4.40247   0.00001   0.00001 
 H(Fragment=2)         0.31758   4.40535  -0.0836 
 H(Fragment=2)         0.31756  -4.40536   0.0836 
 H(Fragment=2)         3.8707    1.71841  -1.15087 
 H(Fragment=2)         4.63093   1.79498   0.45441 
 H(Fragment=2)        -4.22119  -2.59358   0.69104 
 H(Fragment=2)         3.02794   3.89531  -0.48416 
 H(Fragment=2)        -2.36865   4.02764  -1.17642 
 H(Fragment=2)         3.00546   3.4557    1.22811 
 H(Fragment=2)        -4.22119   2.5936   -0.69101 
 H(Fragment=2)         3.87069  -1.71842   1.15088 
 H(Fragment=2)         4.63092  -1.795    -0.4544 
 H(Fragment=2)         3.00545  -3.45572  -1.22809 
 H(Fragment=2)         3.02792  -3.89533   0.48417 
 H(Fragment=2)        -2.33258   4.42617   0.54437 
 H(Fragment=2)        -2.3326   -4.42614  -0.54441 
 H(Fragment=2)        -3.90761   2.68563   1.04531 
 H(Fragment=2)        -2.36867  -4.02766   1.17639 
 H(Fragment=2)        -3.90765  -2.6856   -1.04529 
 O(Fragment=2)        -0.18245  -0.20626   2.30661 
 H(Fragment=2)         0.39297  -0.90393   2.67837 
 H(Fragment=2)         0.0655    0.60953   2.78509 
 
 Stoichiometry    C19H25CoN4O2(1+,2)
 Framework group  C1[X(C19H25CoN4O2)]
 Deg. of freedom   147
 Full point group                 C1      NOp   1
 Largest Abelian subgroup         C1      NOp   1
 Largest concise Abelian subgroup C1      NOp   1
                         Standard orientation:                         
 ---------------------------------------------------------------------
 Center     Atomic      Atomic             Coordinates (Angstroms)
 Number     Number       Type             X           Y           Z
 ---------------------------------------------------------------------
      1          8           0       -0.182428   -0.206267    2.306619
      2          1           0        0.065529    0.609522    2.785100
      3          1           0        0.392992   -0.903937    2.678368
      4         27           0       -0.030963    0.000000    0.000001
      5          7           0       -1.326193    1.415207    0.035824
      6          6           0       -1.039804    2.773733   -0.034673
      7          6           0       -2.311345    3.593027   -0.168131
      8          6           0       -3.426993    2.556574    0.064304
      9          6           0       -2.679085    1.238635    0.027661
     10          6           0        0.224800    3.323970   -0.015984
     11          6           0        1.405956    2.546253    0.096571
     12          7           0        1.366297    1.223720    0.145445
     13          6           0        2.730415    0.666533    0.372121
     14          6           0        3.671073    1.802139   -0.072943
     15          6           0        2.827633    3.070937    0.211231
     16          6           0        2.730417   -0.666518   -0.372125
     17          7           0        1.366303   -1.223714   -0.145445
     18          6           0        1.405969   -2.546247   -0.096574
     19          6           0        2.827648   -3.070922   -0.211240
     20          6           0        3.671081   -1.802120    0.072935
     21          6           0       -3.314357   -0.000008   -0.000004
     22          6           0       -2.679079   -1.238648   -0.027666
     23          7           0       -1.326186   -1.415212   -0.035822
     24          6           0       -1.039789   -2.773737    0.034680
     25          6           0       -2.311327   -3.593035    0.168149
     26          6           0       -3.426977   -2.556592   -0.064317
     27          6           0        0.224817   -3.323969    0.015986
     28          1           0        2.843799    0.465783    1.452107
     29          1           0        2.843797   -0.465767   -1.452112
     30          1           0       -4.402474   -0.000011   -0.000008
     31          1           0        0.317580   -4.405354    0.083599
     32          1           0        0.317558    4.405356   -0.083595
     33          1           0        3.870695   -1.718407    1.150872
     34          1           0        4.630925   -1.794980   -0.454413
     35          1           0       -4.221191    2.593577   -0.691038
     36          1           0        3.027943   -3.895312    0.484156
     37          1           0       -2.368653   -4.027643    1.176420
     38          1           0        3.005460   -3.455699   -1.228105
     39          1           0       -4.221193   -2.593597    0.691005
     40          1           0        3.870685    1.718424   -1.150880
     41          1           0        4.630918    1.795004    0.454403
     42          1           0        3.005446    3.455719    1.228094
     43          1           0        3.027922    3.895326   -0.484167
     44          1           0       -2.332576   -4.426172   -0.544365
     45          1           0       -2.332601    4.426144    0.544407
     46          1           0       -3.907605   -2.685629   -1.045314
     47          1           0       -2.368667    4.027663   -1.176388
     48          1           0       -3.907648    2.685601    1.045288
     49          8           0       -0.182445    0.206261   -2.306609
     50          1           0        0.392972    0.903928   -2.678370
     51          1           0        0.065503   -0.609532   -2.785088
 ---------------------------------------------------------------------
 Rotational constants (GHZ):      0.2583042      0.2471374      0.1422149
 Counterpoise: doing full dimer calculation.
 Standard basis: 6-311++G(d,p) (5D, 7F)
 There are   815 symmetry adapted cartesian basis functions of A   symmetry.
 There are   783 symmetry adapted basis functions of A   symmetry.
   783 basis functions,  1219 primitive gaussians,   815 cartesian basis functions
   105 alpha electrons      104 beta electrons
       nuclear repulsion energy      3209.2859904153 Hartrees.
 NAtoms=   51 NActive=   51 NUniq=   51 SFac= 1.00D+00 NAtFMM=   60 NAOKFM=F Big=F
 Integral buffers will be    131072 words long.
 Raffenetti 2 integral format.
 Two-electron integral symmetry is turned on.
 One-electron integrals computed using PRISM.
 NBasis=   783 RedAO= T EigKep=  1.04D-06  NBF=   783
 NBsUse=   778 1.00D-06 EigRej=  7.17D-07 NBFU=   778
 ExpMin= 1.33D-02 ExpMax= 2.71D+05 ExpMxC= 9.06D+03 IAcc=3 IRadAn=         5 AccDes= 0.00D+00
 Harris functional with IExCor= 1009 and IRadAn=       5 diagonalized for initial guess.
 HarFok:  IExCor= 1009 AccDes= 0.00D+00 IRadAn=         5 IDoV= 1 UseB2=F ITyADJ=14
 ICtDFT=  3500011 ScaDFX=  1.000000  1.000000  1.000000  1.000000
 FoFCou: FMM=F IPFlag=           0 FMFlag=      100000 FMFlg1=           0
         NFxFlg=           0 DoJE=T BraDBF=F KetDBF=T FulRan=T
         wScrn=  0.000000 ICntrl=     500 IOpCl=  0 I1Cent=   200000004 NGrid=           0
         NMat0=    1 NMatS0=      1 NMatT0=    0 NMatD0=    1 NMtDS0=    0 NMtDT0=    0
 Petite list used in FoFCou.
 Initial guess <Sx>= 0.0000 <Sy>= 0.0000 <Sz>= 0.5000 <S**2>= 0.7500 S= 0.5000
 Requested convergence on RMS density matrix=1.00D-08 within 128 cycles.
 Requested convergence on MAX density matrix=1.00D-06.
 Requested convergence on             energy=1.00D-06.
 No special actions if energy rises.
 EnCoef did   100 forward-backward iterations
 EnCoef did     2 forward-backward iterations
 Restarting incremental Fock formation.
 SCF Done:  E(UTPSS-TPSS) =  -2491.76539151     A.U. after   23 cycles
            NFock= 23  Conv=0.49D-08     -V/T= 2.0022
 <Sx>= 0.0000 <Sy>= 0.0000 <Sz>= 0.5000 <S**2>= 0.7607 S= 0.5053
 <L.S>= 0.000000000000E+00
 Annihilation of the first spin contaminant:
 S**2 before annihilation     0.7607,   after     0.7501

 **********************************************************************

            Population analysis using the SCF density.

 **********************************************************************

 Orbital symmetries:
 Alpha Orbitals:
       Occupied  (A) (A) (A) (A) (A) (A) (A) (A) (A) (A) (A) (A)
                 (A) (A) (A) (A) (A) (A) (A) (A) (A) (A) (A) (A)
                 (A) (A) (A) (A) (A) (A) (A) (A) (A) (A) (A) (A)
                 (A) (A) (A) (A) (A) (A) (A) (A) (A) (A) (A) (A)
                 (A) (A) (A) (A) (A) (A) (A) (A) (A) (A) (A) (A)
                 (A) (A) (A) (A) (A) (A) (A) (A) (A) (A) (A) (A)
                 (A) (A) (A) (A) (A) (A) (A) (A) (A) (A) (A) (A)
                 (A) (A) (A) (A) (A) (A) (A) (A) (A) (A) (A) (A)
                 (A) (A) (A) (A) (A) (A) (A) (A) (A)
       Virtual   (A) (A) (A) (A) (A) (A) (A) (A) (A) (A) (A) (A)
                 (A) (A) (A) (A) (A) (A) (A) (A) (A) (A) (A) (A)
                 (A) (A) (A) (A) (A) (A) (A) (A) (A) (A) (A) (A)
                 (A) (A) (A) (A) (A) (A) (A) (A) (A) (A) (A) (A)
                 (A) (A) (A) (A) (A) (A) (A) (A) (A) (A) (A) (A)
                 (A) (A) (A) (A) (A) (A) (A) (A) (A) (A) (A) (A)
                 (A) (A) (A) (A) (A) (A) (A) (A) (A) (A) (A) (A)
                 (A) (A) (A) (A) (A) (A) (A) (A) (A) (A) (A) (A)
                 (A) (A) (A) (A) (A) (A) (A) (A) (A) (A) (A) (A)
                 (A) (A) (A) (A) (A) (A) (A) (A) (A) (A) (A) (A)
                 (A) (A) (A) (A) (A) (A) (A) (A) (A) (A) (A) (A)
                 (A) (A) (A) (A) (A) (A) (A) (A) (A) (A) (A) (A)
                 (A) (A) (A) (A) (A) (A) (A) (A) (A) (A) (A) (A)
                 (A) (A) (A) (A) (A) (A) (A) (A) (A) (A) (A) (A)
                 (A) (A) (A) (A) (A) (A) (A) (A) (A) (A) (A) (A)
                 (A) (A) (A) (A) (A) (A) (A) (A) (A) (A) (A) (A)
                 (A) (A) (A) (A) (A) (A) (A) (A) (A) (A) (A) (A)
                 (A) (A) (A) (A) (A) (A) (A) (A) (A) (A) (A) (A)
                 (A) (A) (A) (A) (A) (A) (A) (A) (A) (A) (A) (A)
                 (A) (A) (A) (A) (A) (A) (A) (A) (A) (A) (A) (A)
                 (A) (A) (A) (A) (A) (A) (A) (A) (A) (A) (A) (A)
                 (A) (A) (A) (A) (A) (A) (A) (A) (A) (A) (A) (A)
                 (A) (A) (A) (A) (A) (A) (A) (A) (A) (A) (A) (A)
                 (A) (A) (A) (A) (A) (A) (A) (A) (A) (A) (A) (A)
                 (A) (A) (A) (A) (A) (A) (A) (A) (A) (A) (A) (A)
                 (A) (A) (A) (A) (A) (A) (A) (A) (A) (A) (A) (A)
                 (A) (A) (A) (A) (A) (A) (A) (A) (A) (A) (A) (A)
                 (A) (A) (A) (A) (A) (A) (A) (A) (A) (A) (A) (A)
                 (A) (A) (A) (A) (A) (A) (A) (A) (A) (A) (A) (A)
                 (A) (A) (A) (A) (A) (A) (A) (A) (A) (A) (A) (A)
                 (A) (A) (A) (A) (A) (A) (A) (A) (A) (A) (A) (A)
                 (A) (A) (A) (A) (A) (A) (A) (A) (A) (A) (A) (A)
                 (A) (A) (A) (A) (A) (A) (A) (A) (A) (A) (A) (A)
                 (A) (A) (A) (A) (A) (A) (A) (A) (A) (A) (A) (A)
                 (A) (A) (A) (A) (A) (A) (A) (A) (A) (A) (A) (A)
                 (A) (A) (A) (A) (A) (A) (A) (A) (A) (A) (A) (A)
                 (A) (A) (A) (A) (A) (A) (A) (A) (A) (A) (A) (A)
                 (A) (A) (A) (A) (A) (A) (A) (A) (A) (A) (A) (A)
                 (A) (A) (A) (A) (A) (A) (A) (A) (A) (A) (A) (A)
                 (A) (A) (A) (A) (A) (A) (A) (A) (A) (A) (A) (A)
                 (A) (A) (A) (A) (A) (A) (A) (A) (A) (A) (A) (A)
                 (A) (A) (A) (A) (A) (A) (A) (A) (A) (A) (A) (A)
                 (A) (A) (A) (A) (A) (A) (A) (A) (A) (A) (A) (A)
                 (A) (A) (A) (A) (A) (A) (A) (A) (A) (A) (A) (A)
                 (A) (A) (A) (A) (A) (A) (A) (A) (A) (A) (A) (A)
                 (A) (A) (A) (A) (A) (A) (A) (A) (A) (A) (A) (A)
                 (A) (A) (A) (A) (A) (A) (A) (A) (A) (A) (A) (A)
                 (A) (A) (A) (A) (A) (A) (A) (A) (A) (A) (A) (A)
                 (A) (A) (A) (A) (A) (A) (A) (A) (A) (A) (A) (A)
                 (A) (A) (A) (A) (A) (A) (A) (A) (A) (A) (A) (A)
                 (A) (A) (A) (A) (A) (A) (A) (A) (A) (A) (A) (A)
                 (A) (A) (A) (A) (A) (A) (A) (A) (A) (A) (A) (A)
                 (A) (A) (A) (A) (A) (A) (A) (A) (A) (A) (A) (A)
                 (A) (A) (A) (A) (A) (A) (A) (A) (A) (A) (A) (A)
                 (A) (A) (A) (A) (A) (A) (A) (A) (A) (A) (A) (A)
                 (A) (A) (A) (A) (A) (A) (A) (A) (A) (A) (A) (A)
                 (A)
 Beta  Orbitals:
       Occupied  (A) (A) (A) (A) (A) (A) (A) (A) (A) (A) (A) (A)
                 (A) (A) (A) (A) (A) (A) (A) (A) (A) (A) (A) (A)
                 (A) (A) (A) (A) (A) (A) (A) (A) (A) (A) (A) (A)
                 (A) (A) (A) (A) (A) (A) (A) (A) (A) (A) (A) (A)
                 (A) (A) (A) (A) (A) (A) (A) (A) (A) (A) (A) (A)
                 (A) (A) (A) (A) (A) (A) (A) (A) (A) (A) (A) (A)
                 (A) (A) (A) (A) (A) (A) (A) (A) (A) (A) (A) (A)
                 (A) (A) (A) (A) (A) (A) (A) (A) (A) (A) (A) (A)
                 (A) (A) (A) (A) (A) (A) (A) (A)
       Virtual   (A) (A) (A) (A) (A) (A) (A) (A) (A) (A) (A) (A)
                 (A) (A) (A) (A) (A) (A) (A) (A) (A) (A) (A) (A)
                 (A) (A) (A) (A) (A) (A) (A) (A) (A) (A) (A) (A)
                 (A) (A) (A) (A) (A) (A) (A) (A) (A) (A) (A) (A)
                 (A) (A) (A) (A) (A) (A) (A) (A) (A) (A) (A) (A)
                 (A) (A) (A) (A) (A) (A) (A) (A) (A) (A) (A) (A)
                 (A) (A) (A) (A) (A) (A) (A) (A) (A) (A) (A) (A)
                 (A) (A) (A) (A) (A) (A) (A) (A) (A) (A) (A) (A)
                 (A) (A) (A) (A) (A) (A) (A) (A) (A) (A) (A) (A)
                 (A) (A) (A) (A) (A) (A) (A) (A) (A) (A) (A) (A)
                 (A) (A) (A) (A) (A) (A) (A) (A) (A) (A) (A) (A)
                 (A) (A) (A) (A) (A) (A) (A) (A) (A) (A) (A) (A)
                 (A) (A) (A) (A) (A) (A) (A) (A) (A) (A) (A) (A)
                 (A) (A) (A) (A) (A) (A) (A) (A) (A) (A) (A) (A)
                 (A) (A) (A) (A) (A) (A) (A) (A) (A) (A) (A) (A)
                 (A) (A) (A) (A) (A) (A) (A) (A) (A) (A) (A) (A)
                 (A) (A) (A) (A) (A) (A) (A) (A) (A) (A) (A) (A)
                 (A) (A) (A) (A) (A) (A) (A) (A) (A) (A) (A) (A)
                 (A) (A) (A) (A) (A) (A) (A) (A) (A) (A) (A) (A)
                 (A) (A) (A) (A) (A) (A) (A) (A) (A) (A) (A) (A)
                 (A) (A) (A) (A) (A) (A) (A) (A) (A) (A) (A) (A)
                 (A) (A) (A) (A) (A) (A) (A) (A) (A) (A) (A) (A)
                 (A) (A) (A) (A) (A) (A) (A) (A) (A) (A) (A) (A)
                 (A) (A) (A) (A) (A) (A) (A) (A) (A) (A) (A) (A)
                 (A) (A) (A) (A) (A) (A) (A) (A) (A) (A) (A) (A)
                 (A) (A) (A) (A) (A) (A) (A) (A) (A) (A) (A) (A)
                 (A) (A) (A) (A) (A) (A) (A) (A) (A) (A) (A) (A)
                 (A) (A) (A) (A) (A) (A) (A) (A) (A) (A) (A) (A)
                 (A) (A) (A) (A) (A) (A) (A) (A) (A) (A) (A) (A)
                 (A) (A) (A) (A) (A) (A) (A) (A) (A) (A) (A) (A)
                 (A) (A) (A) (A) (A) (A) (A) (A) (A) (A) (A) (A)
                 (A) (A) (A) (A) (A) (A) (A) (A) (A) (A) (A) (A)
                 (A) (A) (A) (A) (A) (A) (A) (A) (A) (A) (A) (A)
                 (A) (A) (A) (A) (A) (A) (A) (A) (A) (A) (A) (A)
                 (A) (A) (A) (A) (A) (A) (A) (A) (A) (A) (A) (A)
                 (A) (A) (A) (A) (A) (A) (A) (A) (A) (A) (A) (A)
                 (A) (A) (A) (A) (A) (A) (A) (A) (A) (A) (A) (A)
                 (A) (A) (A) (A) (A) (A) (A) (A) (A) (A) (A) (A)
                 (A) (A) (A) (A) (A) (A) (A) (A) (A) (A) (A) (A)
                 (A) (A) (A) (A) (A) (A) (A) (A) (A) (A) (A) (A)
                 (A) (A) (A) (A) (A) (A) (A) (A) (A) (A) (A) (A)
                 (A) (A) (A) (A) (A) (A) (A) (A) (A) (A) (A) (A)
                 (A) (A) (A) (A) (A) (A) (A) (A) (A) (A) (A) (A)
                 (A) (A) (A) (A) (A) (A) (A) (A) (A) (A) (A) (A)
                 (A) (A) (A) (A) (A) (A) (A) (A) (A) (A) (A) (A)
                 (A) (A) (A) (A) (A) (A) (A) (A) (A) (A) (A) (A)
                 (A) (A) (A) (A) (A) (A) (A) (A) (A) (A) (A) (A)
                 (A) (A) (A) (A) (A) (A) (A) (A) (A) (A) (A) (A)
                 (A) (A) (A) (A) (A) (A) (A) (A) (A) (A) (A) (A)
                 (A) (A) (A) (A) (A) (A) (A) (A) (A) (A) (A) (A)
                 (A) (A) (A) (A) (A) (A) (A) (A) (A) (A) (A) (A)
                 (A) (A) (A) (A) (A) (A) (A) (A) (A) (A) (A) (A)
                 (A) (A) (A) (A) (A) (A) (A) (A) (A) (A) (A) (A)
                 (A) (A) (A) (A) (A) (A) (A) (A) (A) (A) (A) (A)
                 (A) (A) (A) (A) (A) (A) (A) (A) (A) (A) (A) (A)
                 (A) (A) (A) (A) (A) (A) (A) (A) (A) (A) (A) (A)
                 (A) (A)
 The electronic state is 2-A.
 Alpha  occ. eigenvalues -- -276.74084 -32.53625 -28.20987 -28.20932 -28.20609
 Alpha  occ. eigenvalues --  -19.01766 -19.01766 -14.22910 -14.22910 -14.22188
 Alpha  occ. eigenvalues --  -14.22188 -10.14096 -10.14096 -10.14085 -10.14085
 Alpha  occ. eigenvalues --  -10.13891 -10.13890 -10.13550 -10.13538 -10.10527
 Alpha  occ. eigenvalues --  -10.10527 -10.10145 -10.10145 -10.09993 -10.09993
 Alpha  occ. eigenvalues --  -10.09924 -10.09923 -10.08876 -10.08875 -10.08519
 Alpha  occ. eigenvalues --   -3.70355  -2.40823  -2.40634  -2.40621  -1.07467
 Alpha  occ. eigenvalues --   -1.07420  -1.01106  -0.99834  -0.99616  -0.97933
 Alpha  occ. eigenvalues --   -0.86489  -0.83320  -0.83162  -0.82635  -0.82105
 Alpha  occ. eigenvalues --   -0.82074  -0.81344  -0.76994  -0.76231  -0.70726
 Alpha  occ. eigenvalues --   -0.69570  -0.67771  -0.65190  -0.65128  -0.64222
 Alpha  occ. eigenvalues --   -0.61958  -0.61377  -0.61090  -0.61023  -0.59781
 Alpha  occ. eigenvalues --   -0.57579  -0.56856  -0.56640  -0.55853  -0.54826
 Alpha  occ. eigenvalues --   -0.54154  -0.53475  -0.52956  -0.52310  -0.50140
 Alpha  occ. eigenvalues --   -0.49484  -0.49076  -0.48745  -0.48055  -0.47040
 Alpha  occ. eigenvalues --   -0.46762  -0.46325  -0.45767  -0.45148  -0.45114
 Alpha  occ. eigenvalues --   -0.44992  -0.44962  -0.44672  -0.44329  -0.43909
 Alpha  occ. eigenvalues --   -0.43704  -0.42791  -0.42581  -0.42192  -0.41880
 Alpha  occ. eigenvalues --   -0.41130  -0.40995  -0.40953  -0.40552  -0.39330
 Alpha  occ. eigenvalues --   -0.38505  -0.38413  -0.37639  -0.34619  -0.32891
 Alpha  occ. eigenvalues --   -0.31179  -0.29251  -0.29151  -0.28101  -0.27928
 Alpha virt. eigenvalues --   -0.20042  -0.17613  -0.16808  -0.14409  -0.13259
 Alpha virt. eigenvalues --   -0.12948  -0.10344  -0.09751  -0.08837  -0.08592
 Alpha virt. eigenvalues --   -0.08571  -0.08449  -0.08233  -0.08205  -0.07403
 Alpha virt. eigenvalues --   -0.06667  -0.06660  -0.06311  -0.06153  -0.05570
 Alpha virt. eigenvalues --   -0.05193  -0.04845  -0.04582  -0.03882  -0.03659
 Alpha virt. eigenvalues --   -0.03427  -0.03319  -0.03187  -0.02888  -0.02551
 Alpha virt. eigenvalues --   -0.02330  -0.02007  -0.01671  -0.01487  -0.01426
 Alpha virt. eigenvalues --   -0.01169  -0.01163  -0.00402   0.00349   0.00584
 Alpha virt. eigenvalues --    0.00801   0.01156   0.01342   0.01554   0.01734
 Alpha virt. eigenvalues --    0.01860   0.01947   0.02097   0.02371   0.02739
 Alpha virt. eigenvalues --    0.02836   0.03236   0.03358   0.03790   0.03885
 Alpha virt. eigenvalues --    0.04037   0.04176   0.04306   0.04537   0.04637
 Alpha virt. eigenvalues --    0.04824   0.05034   0.05320   0.05474   0.05508
 Alpha virt. eigenvalues --    0.05617   0.05727   0.06133   0.06134   0.06359
 Alpha virt. eigenvalues --    0.06598   0.06598   0.06973   0.07027   0.07046
 Alpha virt. eigenvalues --    0.07233   0.07366   0.07588   0.07671   0.07817
 Alpha virt. eigenvalues --    0.08199   0.08304   0.08501   0.08778   0.09087
 Alpha virt. eigenvalues --    0.09398   0.09432   0.09807   0.10063   0.10226
 Alpha virt. eigenvalues --    0.10599   0.10658   0.10871   0.11329   0.11363
 Alpha virt. eigenvalues --    0.11440   0.11722   0.11729   0.12233   0.12489
 Alpha virt. eigenvalues --    0.12980   0.13121   0.13196   0.13397   0.14151
 Alpha virt. eigenvalues --    0.14375   0.14409   0.14919   0.15121   0.15369
 Alpha virt. eigenvalues --    0.15832   0.15946   0.16039   0.16182   0.16706
 Alpha virt. eigenvalues --    0.17398   0.17598   0.17786   0.17946   0.18029
 Alpha virt. eigenvalues --    0.18334   0.18452   0.18565   0.19133   0.19205
 Alpha virt. eigenvalues --    0.19275   0.19322   0.19578   0.19930   0.20188
 Alpha virt. eigenvalues --    0.20190   0.20470   0.20568   0.20824   0.20952
 Alpha virt. eigenvalues --    0.21468   0.21812   0.21965   0.22049   0.22263
 Alpha virt. eigenvalues --    0.22545   0.22706   0.22903   0.23007   0.23312
 Alpha virt. eigenvalues --    0.23547   0.24055   0.24087   0.24497   0.24506
 Alpha virt. eigenvalues --    0.25022   0.25066   0.25720   0.25732   0.25938
 Alpha virt. eigenvalues --    0.26640   0.26980   0.27078   0.27680   0.27735
 Alpha virt. eigenvalues --    0.28478   0.28738   0.28965   0.29212   0.29823
 Alpha virt. eigenvalues --    0.29926   0.30378   0.31156   0.31165   0.31590
 Alpha virt. eigenvalues --    0.32179   0.32302   0.33822   0.33951   0.34264
 Alpha virt. eigenvalues --    0.35317   0.35631   0.35758   0.36370   0.36925
 Alpha virt. eigenvalues --    0.37126   0.37830   0.38061   0.38825   0.38905
 Alpha virt. eigenvalues --    0.39144   0.39968   0.40129   0.41649   0.42394
 Alpha virt. eigenvalues --    0.42543   0.43475   0.43614   0.43951   0.44272
 Alpha virt. eigenvalues --    0.44563   0.44739   0.45263   0.45634   0.46330
 Alpha virt. eigenvalues --    0.47229   0.47423   0.47697   0.48038   0.48775
 Alpha virt. eigenvalues --    0.49027   0.49325   0.49913   0.50786   0.50908
 Alpha virt. eigenvalues --    0.51512   0.51866   0.52303   0.52723   0.52884
 Alpha virt. eigenvalues --    0.53850   0.53961   0.54288   0.55391   0.55504
 Alpha virt. eigenvalues --    0.55742   0.55934   0.56397   0.56900   0.57477
 Alpha virt. eigenvalues --    0.57666   0.57826   0.58595   0.58853   0.59155
 Alpha virt. eigenvalues --    0.59401   0.60002   0.61478   0.61667   0.61808
 Alpha virt. eigenvalues --    0.62171   0.62499   0.63051   0.63511   0.63586
 Alpha virt. eigenvalues --    0.63798   0.64278   0.64356   0.64825   0.65138
 Alpha virt. eigenvalues --    0.65481   0.65688   0.65871   0.65937   0.66813
 Alpha virt. eigenvalues --    0.66976   0.67526   0.67815   0.68943   0.69814
 Alpha virt. eigenvalues --    0.69885   0.70471   0.70716   0.70842   0.72225
 Alpha virt. eigenvalues --    0.73932   0.74655   0.75177   0.76297   0.76687
 Alpha virt. eigenvalues --    0.76892   0.79107   0.79375   0.80958   0.81767
 Alpha virt. eigenvalues --    0.82831   0.84232   0.84466   0.84826   0.85310
 Alpha virt. eigenvalues --    0.85736   0.86465   0.87783   0.87984   0.88231
 Alpha virt. eigenvalues --    0.89034   0.89073   0.89957   0.90338   0.90919
 Alpha virt. eigenvalues --    0.90991   0.91942   0.93229   0.94059   0.96273
 Alpha virt. eigenvalues --    0.96335   0.97583   0.98387   0.99550   1.00486
 Alpha virt. eigenvalues --    1.01021   1.02671   1.02922   1.03852   1.04692
 Alpha virt. eigenvalues --    1.04990   1.05443   1.06476   1.07653   1.08320
 Alpha virt. eigenvalues --    1.09009   1.10539   1.10691   1.11248   1.12034
 Alpha virt. eigenvalues --    1.12922   1.13033   1.14432   1.14838   1.15852
 Alpha virt. eigenvalues --    1.16712   1.18609   1.19064   1.20464   1.21686
 Alpha virt. eigenvalues --    1.21704   1.22559   1.22739   1.24355   1.24739
 Alpha virt. eigenvalues --    1.25447   1.26611   1.26719   1.27474   1.27475
 Alpha virt. eigenvalues --    1.28419   1.29747   1.29947   1.30725   1.32045
 Alpha virt. eigenvalues --    1.32069   1.33541   1.34445   1.35067   1.35624
 Alpha virt. eigenvalues --    1.36789   1.37412   1.38641   1.39138   1.39644
 Alpha virt. eigenvalues --    1.40176   1.40894   1.41448   1.41526   1.42254
 Alpha virt. eigenvalues --    1.43758   1.44623   1.45265   1.45323   1.45760
 Alpha virt. eigenvalues --    1.46317   1.47099   1.47261   1.47455   1.48249
 Alpha virt. eigenvalues --    1.49156   1.49903   1.50156   1.50530   1.51571
 Alpha virt. eigenvalues --    1.51923   1.52357   1.52661   1.53113   1.53678
 Alpha virt. eigenvalues --    1.55595   1.55811   1.55967   1.56151   1.57633
 Alpha virt. eigenvalues --    1.58004   1.58417   1.58515   1.58934   1.59177
 Alpha virt. eigenvalues --    1.59886   1.60088   1.61987   1.61987   1.62313
 Alpha virt. eigenvalues --    1.62822   1.63513   1.63947   1.64704   1.64737
 Alpha virt. eigenvalues --    1.65522   1.65725   1.66403   1.67251   1.68225
 Alpha virt. eigenvalues --    1.69173   1.70488   1.70647   1.70757   1.72147
 Alpha virt. eigenvalues --    1.72540   1.73377   1.73814   1.74411   1.74983
 Alpha virt. eigenvalues --    1.75295   1.75699   1.76040   1.76543   1.77258
 Alpha virt. eigenvalues --    1.77561   1.77790   1.78916   1.79552   1.79908
 Alpha virt. eigenvalues --    1.80200   1.80535   1.81409   1.82967   1.86972
 Alpha virt. eigenvalues --    1.87270   1.88392   1.89346   1.89479   1.89977
 Alpha virt. eigenvalues --    1.90319   1.91808   1.92476   1.92637   1.93141
 Alpha virt. eigenvalues --    1.94207   1.94733   1.94909   1.96481   1.96688
 Alpha virt. eigenvalues --    2.00378   2.01088   2.01643   2.01770   2.01984
 Alpha virt. eigenvalues --    2.03331   2.04525   2.04864   2.06105   2.07266
 Alpha virt. eigenvalues --    2.08130   2.08382   2.08864   2.09319   2.10630
 Alpha virt. eigenvalues --    2.10871   2.11840   2.12408   2.12906   2.13280
 Alpha virt. eigenvalues --    2.13614   2.14951   2.16216   2.16380   2.17358
 Alpha virt. eigenvalues --    2.18845   2.19537   2.21938   2.22159   2.24942
 Alpha virt. eigenvalues --    2.28282   2.28525   2.29164   2.29937   2.30368
 Alpha virt. eigenvalues --    2.31367   2.31673   2.32932   2.35022   2.37109
 Alpha virt. eigenvalues --    2.37420   2.38021   2.40347   2.40676   2.42040
 Alpha virt. eigenvalues --    2.42481   2.43272   2.43428   2.43674   2.44459
 Alpha virt. eigenvalues --    2.46229   2.46592   2.47754   2.48182   2.49551
 Alpha virt. eigenvalues --    2.50650   2.51404   2.51610   2.52326   2.54064
 Alpha virt. eigenvalues --    2.55489   2.55760   2.56411   2.56601   2.58252
 Alpha virt. eigenvalues --    2.58617   2.60287   2.61296   2.61415   2.62011
 Alpha virt. eigenvalues --    2.62576   2.64713   2.64896   2.65397   2.65859
 Alpha virt. eigenvalues --    2.67596   2.68339   2.68970   2.69623   2.69698
 Alpha virt. eigenvalues --    2.72302   2.72503   2.73505   2.75778   2.76001
 Alpha virt. eigenvalues --    2.76131   2.76795   2.80031   2.80690   2.80936
 Alpha virt. eigenvalues --    2.81740   2.81932   2.83151   2.83425   2.84777
 Alpha virt. eigenvalues --    2.84904   2.85518   2.87713   2.87788   2.88227
 Alpha virt. eigenvalues --    2.88752   2.89179   2.90310   2.91505   2.91764
 Alpha virt. eigenvalues --    2.92734   2.94339   2.94631   2.94942   2.95643
 Alpha virt. eigenvalues --    2.96610   2.97470   2.98251   2.99301   2.99827
 Alpha virt. eigenvalues --    3.01575   3.01858   3.02846   3.05113   3.05877
 Alpha virt. eigenvalues --    3.07196   3.08812   3.09390   3.10312   3.11237
 Alpha virt. eigenvalues --    3.12709   3.13818   3.14648   3.14944   3.16267
 Alpha virt. eigenvalues --    3.16742   3.17077   3.18266   3.19578   3.20787
 Alpha virt. eigenvalues --    3.27626   3.32102   3.32573   3.34071   3.34173
 Alpha virt. eigenvalues --    3.39229   3.40185   3.47924   3.50577   3.51875
 Alpha virt. eigenvalues --    3.54332   3.54591   3.55243   3.56602   3.57063
 Alpha virt. eigenvalues --    3.57387   3.57778   3.62081   3.62959   3.65606
 Alpha virt. eigenvalues --    3.73725   3.75781   3.75978   3.79588   3.81445
 Alpha virt. eigenvalues --    3.83398   3.83578   3.83983   3.85341   3.86539
 Alpha virt. eigenvalues --    3.87256   3.88688   3.90502   3.92542   3.93479
 Alpha virt. eigenvalues --    3.94656   3.99176   4.03292   4.08528   4.10977
 Alpha virt. eigenvalues --    4.11777   4.13406   4.15766   4.15837   4.16379
 Alpha virt. eigenvalues --    4.20861   4.21828   4.29157   4.32426   4.35907
 Alpha virt. eigenvalues --    4.37251   4.57738   4.58411   4.72388   4.83589
 Alpha virt. eigenvalues --    4.92789   4.98773   5.03603   5.09582   5.10032
 Alpha virt. eigenvalues --    5.30944   5.38693   5.47120   5.49784   6.18724
 Alpha virt. eigenvalues --    6.20409   6.37065   6.55836   6.80314   8.32726
 Alpha virt. eigenvalues --    8.48776   8.49492  23.68409  23.69307  23.72078
 Alpha virt. eigenvalues --   23.74830  23.75967  23.77145  23.77981  23.79588
 Alpha virt. eigenvalues --   23.79775  23.81903  23.83062  23.83911  23.84090
 Alpha virt. eigenvalues --   23.88674  23.89800  23.91220  24.02282  24.03093
 Alpha virt. eigenvalues --   24.04869  28.10495  33.90289  34.01059  34.01831
 Alpha virt. eigenvalues --   35.55988  35.56546  35.57706  35.63668  49.85736
 Alpha virt. eigenvalues --   49.89436 153.66870 804.74386
  Beta  occ. eigenvalues -- -276.74084 -32.51803 -28.19940 -28.19933 -28.18269
  Beta  occ. eigenvalues --  -19.01618 -19.01618 -14.22921 -14.22921 -14.22204
  Beta  occ. eigenvalues --  -14.22203 -10.14119 -10.14119 -10.14104 -10.14104
  Beta  occ. eigenvalues --  -10.13923 -10.13923 -10.13553 -10.13541 -10.10528
  Beta  occ. eigenvalues --  -10.10528 -10.10145 -10.10145 -10.09994 -10.09993
  Beta  occ. eigenvalues --  -10.09923 -10.09923 -10.08866 -10.08866 -10.08511
  Beta  occ. eigenvalues --   -3.65908  -2.37440  -2.37356  -2.33991  -1.07254
  Beta  occ. eigenvalues --   -1.07208  -1.01120  -0.99857  -0.99640  -0.97951
  Beta  occ. eigenvalues --   -0.86509  -0.83336  -0.83179  -0.82639  -0.82112
  Beta  occ. eigenvalues --   -0.82082  -0.81349  -0.76993  -0.76262  -0.70735
  Beta  occ. eigenvalues --   -0.69577  -0.67774  -0.65204  -0.65145  -0.64235
  Beta  occ. eigenvalues --   -0.61962  -0.61335  -0.60990  -0.60926  -0.59752
  Beta  occ. eigenvalues --   -0.57587  -0.56883  -0.56660  -0.55757  -0.54840
  Beta  occ. eigenvalues --   -0.54169  -0.53496  -0.52958  -0.52309  -0.50143
  Beta  occ. eigenvalues --   -0.49195  -0.48819  -0.48548  -0.48047  -0.47035
  Beta  occ. eigenvalues --   -0.46760  -0.46314  -0.45733  -0.45163  -0.45110
  Beta  occ. eigenvalues --   -0.44978  -0.44736  -0.44401  -0.44033  -0.43899
  Beta  occ. eigenvalues --   -0.43561  -0.42735  -0.42584  -0.42165  -0.41896
  Beta  occ. eigenvalues --   -0.41003  -0.40754  -0.40263  -0.40236  -0.39350
  Beta  occ. eigenvalues --   -0.38406  -0.38376  -0.37653  -0.34539  -0.32355
  Beta  occ. eigenvalues --   -0.29154  -0.28814  -0.27993  -0.27061
  Beta virt. eigenvalues --   -0.20014  -0.19196  -0.16947  -0.14736  -0.14487
  Beta virt. eigenvalues --   -0.12957  -0.12860  -0.10325  -0.09744  -0.08774
  Beta virt. eigenvalues --   -0.08587  -0.08556  -0.08443  -0.08233  -0.08200
  Beta virt. eigenvalues --   -0.07398  -0.06658  -0.06645  -0.06274  -0.06126
  Beta virt. eigenvalues --   -0.05553  -0.05178  -0.04839  -0.04560  -0.03875
  Beta virt. eigenvalues --   -0.03596  -0.03419  -0.03283  -0.03181  -0.02862
  Beta virt. eigenvalues --   -0.02529  -0.02310  -0.02005  -0.01661  -0.01466
  Beta virt. eigenvalues --   -0.01418  -0.01159  -0.01094  -0.00331   0.00358
  Beta virt. eigenvalues --    0.00598   0.00803   0.01162   0.01358   0.01585
  Beta virt. eigenvalues --    0.01747   0.01855   0.01966   0.02120   0.02388
  Beta virt. eigenvalues --    0.02750   0.02846   0.03252   0.03357   0.03792
  Beta virt. eigenvalues --    0.03914   0.04051   0.04186   0.04334   0.04549
  Beta virt. eigenvalues --    0.04640   0.04838   0.05048   0.05355   0.05482
  Beta virt. eigenvalues --    0.05518   0.05648   0.05730   0.06139   0.06148
  Beta virt. eigenvalues --    0.06372   0.06607   0.06618   0.06977   0.07051
  Beta virt. eigenvalues --    0.07053   0.07254   0.07403   0.07592   0.07677
  Beta virt. eigenvalues --    0.07847   0.08198   0.08322   0.08504   0.08781
  Beta virt. eigenvalues --    0.09091   0.09403   0.09455   0.09815   0.10063
  Beta virt. eigenvalues --    0.10233   0.10612   0.10669   0.10890   0.11342
  Beta virt. eigenvalues --    0.11365   0.11444   0.11726   0.11754   0.12360
  Beta virt. eigenvalues --    0.12501   0.13016   0.13207   0.13229   0.13417
  Beta virt. eigenvalues --    0.14288   0.14476   0.14510   0.14928   0.15145
  Beta virt. eigenvalues --    0.15380   0.15842   0.16038   0.16097   0.16225
  Beta virt. eigenvalues --    0.16850   0.17443   0.17675   0.17794   0.17965
  Beta virt. eigenvalues --    0.18065   0.18376   0.18541   0.18620   0.19169
  Beta virt. eigenvalues --    0.19221   0.19328   0.19341   0.19587   0.20125
  Beta virt. eigenvalues --    0.20198   0.20305   0.20531   0.20603   0.20830
  Beta virt. eigenvalues --    0.20953   0.21501   0.21834   0.21981   0.22058
  Beta virt. eigenvalues --    0.22279   0.22556   0.22729   0.22924   0.23019
  Beta virt. eigenvalues --    0.23335   0.23550   0.24066   0.24177   0.24528
  Beta virt. eigenvalues --    0.24528   0.25018   0.25115   0.25745   0.25750
  Beta virt. eigenvalues --    0.26253   0.26690   0.27032   0.27081   0.27730
  Beta virt. eigenvalues --    0.27756   0.28523   0.28777   0.28993   0.29248
  Beta virt. eigenvalues --    0.29896   0.29972   0.30398   0.31179   0.31192
  Beta virt. eigenvalues --    0.31622   0.32209   0.32464   0.33905   0.33998
  Beta virt. eigenvalues --    0.34315   0.35381   0.35674   0.35791   0.36386
  Beta virt. eigenvalues --    0.36952   0.37142   0.37892   0.38051   0.38848
  Beta virt. eigenvalues --    0.38950   0.39196   0.40131   0.40180   0.41702
  Beta virt. eigenvalues --    0.42437   0.42598   0.43544   0.43615   0.44032
  Beta virt. eigenvalues --    0.44318   0.44597   0.44751   0.45322   0.45690
  Beta virt. eigenvalues --    0.46342   0.47245   0.47425   0.47726   0.48091
  Beta virt. eigenvalues --    0.48798   0.49029   0.49359   0.49962   0.50801
  Beta virt. eigenvalues --    0.50940   0.51523   0.51877   0.52307   0.52750
  Beta virt. eigenvalues --    0.52872   0.53855   0.53967   0.54306   0.55451
  Beta virt. eigenvalues --    0.55509   0.55767   0.55926   0.56442   0.56935
  Beta virt. eigenvalues --    0.57478   0.57710   0.57867   0.58580   0.58888
  Beta virt. eigenvalues --    0.59206   0.59411   0.60009   0.61527   0.61676
  Beta virt. eigenvalues --    0.61839   0.62170   0.62516   0.63047   0.63489
  Beta virt. eigenvalues --    0.63600   0.63790   0.64291   0.64402   0.64836
  Beta virt. eigenvalues --    0.65157   0.65502   0.65687   0.65883   0.65934
  Beta virt. eigenvalues --    0.66823   0.66988   0.67597   0.67822   0.68973
  Beta virt. eigenvalues --    0.69804   0.69952   0.70482   0.70713   0.70849
  Beta virt. eigenvalues --    0.72220   0.73960   0.74666   0.75244   0.76301
  Beta virt. eigenvalues --    0.76685   0.76966   0.79123   0.79459   0.81087
  Beta virt. eigenvalues --    0.81815   0.82858   0.84254   0.84462   0.84854
  Beta virt. eigenvalues --    0.85351   0.85744   0.86518   0.87796   0.88033
  Beta virt. eigenvalues --    0.88236   0.89097   0.89128   0.89943   0.90349
  Beta virt. eigenvalues --    0.90942   0.91009   0.92018   0.93300   0.94049
  Beta virt. eigenvalues --    0.96299   0.96326   0.97622   0.98421   0.99552
  Beta virt. eigenvalues --    1.00504   1.01057   1.02675   1.02961   1.03852
  Beta virt. eigenvalues --    1.04690   1.05003   1.05464   1.06511   1.07717
  Beta virt. eigenvalues --    1.08371   1.09019   1.10599   1.10730   1.11367
  Beta virt. eigenvalues --    1.12061   1.13012   1.13049   1.14435   1.14853
  Beta virt. eigenvalues --    1.15898   1.16765   1.18629   1.19208   1.20569
  Beta virt. eigenvalues --    1.21752   1.21773   1.22584   1.23082   1.24379
  Beta virt. eigenvalues --    1.24783   1.25464   1.26697   1.26753   1.27473
  Beta virt. eigenvalues --    1.27797   1.28536   1.29814   1.30011   1.30749
  Beta virt. eigenvalues --    1.32070   1.32075   1.33651   1.34771   1.35227
  Beta virt. eigenvalues --    1.35683   1.36817   1.37462   1.38651   1.39146
  Beta virt. eigenvalues --    1.39706   1.40232   1.40906   1.41483   1.41546
  Beta virt. eigenvalues --    1.42250   1.43771   1.44634   1.45285   1.45344
  Beta virt. eigenvalues --    1.45774   1.46361   1.47154   1.47314   1.47458
  Beta virt. eigenvalues --    1.48327   1.49164   1.49976   1.50295   1.50565
  Beta virt. eigenvalues --    1.51716   1.52003   1.52372   1.52772   1.53404
  Beta virt. eigenvalues --    1.53725   1.55778   1.55973   1.56058   1.56313
  Beta virt. eigenvalues --    1.57789   1.58216   1.58532   1.58569   1.59064
  Beta virt. eigenvalues --    1.59306   1.60051   1.60168   1.62009   1.62258
  Beta virt. eigenvalues --    1.62467   1.62986   1.63521   1.64048   1.64811
  Beta virt. eigenvalues --    1.64871   1.65551   1.65802   1.66490   1.67309
  Beta virt. eigenvalues --    1.68323   1.69298   1.70594   1.70716   1.70785
  Beta virt. eigenvalues --    1.72269   1.72578   1.73468   1.73926   1.74426
  Beta virt. eigenvalues --    1.75050   1.75700   1.75710   1.76371   1.76654
  Beta virt. eigenvalues --    1.77287   1.77610   1.77861   1.78977   1.79558
  Beta virt. eigenvalues --    1.80013   1.80268   1.80646   1.81446   1.83033
  Beta virt. eigenvalues --    1.87142   1.87285   1.88540   1.89372   1.89536
  Beta virt. eigenvalues --    1.90281   1.90409   1.91822   1.92714   1.92724
  Beta virt. eigenvalues --    1.93170   1.94299   1.94753   1.95030   1.96505
  Beta virt. eigenvalues --    1.96715   2.00937   2.01101   2.01811   2.01968
  Beta virt. eigenvalues --    2.01975   2.03367   2.04602   2.05156   2.06119
  Beta virt. eigenvalues --    2.07710   2.08177   2.08390   2.09366   2.09562
  Beta virt. eigenvalues --    2.10690   2.10901   2.11966   2.12717   2.12986
  Beta virt. eigenvalues --    2.13432   2.13699   2.14987   2.16302   2.16398
  Beta virt. eigenvalues --    2.17377   2.18860   2.19992   2.22135   2.22524
  Beta virt. eigenvalues --    2.25049   2.28396   2.28536   2.29218   2.29962
  Beta virt. eigenvalues --    2.30415   2.31353   2.31697   2.33119   2.35020
  Beta virt. eigenvalues --    2.37122   2.37668   2.38019   2.40340   2.40675
  Beta virt. eigenvalues --    2.42189   2.42478   2.43329   2.43423   2.43717
  Beta virt. eigenvalues --    2.44462   2.46230   2.46674   2.47766   2.48221
  Beta virt. eigenvalues --    2.49573   2.50647   2.51420   2.51627   2.52338
  Beta virt. eigenvalues --    2.54084   2.55483   2.55777   2.56569   2.56600
  Beta virt. eigenvalues --    2.58272   2.58672   2.60376   2.61457   2.61562
  Beta virt. eigenvalues --    2.62019   2.62658   2.64769   2.64906   2.65394
  Beta virt. eigenvalues --    2.65955   2.67693   2.68355   2.69012   2.69621
  Beta virt. eigenvalues --    2.69768   2.72405   2.72529   2.73682   2.75796
  Beta virt. eigenvalues --    2.76039   2.76154   2.76822   2.80057   2.80683
  Beta virt. eigenvalues --    2.81061   2.81805   2.81963   2.83164   2.83480
  Beta virt. eigenvalues --    2.84846   2.84898   2.85530   2.87707   2.87751
  Beta virt. eigenvalues --    2.88314   2.88738   2.89162   2.90309   2.91476
  Beta virt. eigenvalues --    2.91777   2.92781   2.94425   2.94761   2.94937
  Beta virt. eigenvalues --    2.95655   2.96855   2.97625   2.98364   2.99569
  Beta virt. eigenvalues --    3.00081   3.01688   3.02209   3.02985   3.05231
  Beta virt. eigenvalues --    3.06310   3.07259   3.09122   3.09570   3.10503
  Beta virt. eigenvalues --    3.11498   3.12769   3.14356   3.15497   3.16331
  Beta virt. eigenvalues --    3.16507   3.16932   3.17450   3.19988   3.20281
  Beta virt. eigenvalues --    3.23813   3.28229   3.32341   3.33511   3.34135
  Beta virt. eigenvalues --    3.34635   3.39367   3.40418   3.48020   3.51038
  Beta virt. eigenvalues --    3.53201   3.54472   3.54605   3.55475   3.57279
  Beta virt. eigenvalues --    3.57312   3.58132   3.58617   3.62427   3.63021
  Beta virt. eigenvalues --    3.65924   3.73737   3.75791   3.76006   3.79657
  Beta virt. eigenvalues --    3.81491   3.83400   3.83594   3.83993   3.85340
  Beta virt. eigenvalues --    3.86584   3.87253   3.88784   3.90531   3.92599
  Beta virt. eigenvalues --    3.93537   3.94767   3.99203   4.03603   4.08615
  Beta virt. eigenvalues --    4.10968   4.11772   4.13884   4.15828   4.16046
  Beta virt. eigenvalues --    4.18252   4.20842   4.21837   4.29131   4.32474
  Beta virt. eigenvalues --    4.35864   4.37496   4.57828   4.58507   4.72506
  Beta virt. eigenvalues --    4.83602   4.92809   4.98735   5.03990   5.09920
  Beta virt. eigenvalues --    5.09986   5.31295   5.39033   5.47364   5.50023
  Beta virt. eigenvalues --    6.21160   6.22745   6.39641   6.63055   6.83220
  Beta virt. eigenvalues --    8.38879   8.52012   8.52860  23.68387  23.69290
  Beta virt. eigenvalues --   23.72049  23.74825  23.75964  23.77141  23.77974
  Beta virt. eigenvalues --   23.79586  23.79771  23.81900  23.83058  23.83908
  Beta virt. eigenvalues --   23.84072  23.88646  23.89782  23.91182  24.02282
  Beta virt. eigenvalues --   24.03093  24.04866  28.14657  33.95064  34.03739
  Beta virt. eigenvalues --   34.04618  35.55973  35.56533  35.57691  35.63652
  Beta virt. eigenvalues --   49.85931  49.89630 153.69596 804.75192
          Condensed to atoms (all electrons):
          Atomic-Atomic Spin Densities.
 Mulliken charges and spin densities:
               1          2
     1  O   -0.342965  -0.001018
     2  H    0.316910   0.007658
     3  H    0.278966   0.008456
     4  Co  -2.621111   1.057511
     5  N    0.545986   0.003355
     6  C    0.261569  -0.027451
     7  C   -0.771196  -0.001183
     8  C   -0.823711   0.000681
     9  C    0.101213  -0.025766
    10  C   -0.212244   0.005418
    11  C    0.267401  -0.003301
    12  N    0.510471   0.006319
    13  C    0.452204  -0.005408
    14  C   -0.864261   0.004970
    15  C   -0.716859   0.003519
    16  C    0.452208  -0.005408
    17  N    0.510470   0.006320
    18  C    0.267397  -0.003301
    19  C   -0.716855   0.003519
    20  C   -0.864263   0.004970
    21  C    0.117094   0.002429
    22  C    0.101232  -0.025765
    23  N    0.545997   0.003355
    24  C    0.261583  -0.027450
    25  C   -0.771201  -0.001183
    26  C   -0.823717   0.000681
    27  C   -0.212257   0.005418
    28  H    0.347172  -0.000770
    29  H    0.347172  -0.000770
    30  H    0.284652  -0.000820
    31  H    0.285349  -0.000552
    32  H    0.285349  -0.000552
    33  H    0.205461  -0.000371
    34  H    0.254477   0.000004
    35  H    0.242159  -0.000613
    36  H    0.232277  -0.000247
    37  H    0.272144  -0.000675
    38  H    0.250079  -0.000945
    39  H    0.242160  -0.000613
    40  H    0.205461  -0.000371
    41  H    0.254477   0.000004
    42  H    0.250079  -0.000945
    43  H    0.232277  -0.000247
    44  H    0.243579  -0.000346
    45  H    0.243580  -0.000346
    46  H    0.273487  -0.001297
    47  H    0.272143  -0.000675
    48  H    0.273487  -0.001297
    49  O   -0.342961  -0.001018
    50  H    0.278966   0.008457
    51  H    0.316911   0.007658
 Sum of Mulliken charges =   1.00000   1.00000
 Mulliken charges and spin densities with hydrogens summed into heavy atoms:
               1          2
     1  O    0.252912   0.015096
     4  Co  -2.621111   1.057511
     5  N    0.545986   0.003355
     6  C    0.261569  -0.027451
     7  C   -0.255474  -0.002204
     8  C   -0.308065  -0.001229
     9  C    0.101213  -0.025766
    10  C    0.073105   0.004866
    11  C    0.267401  -0.003301
    12  N    0.510471   0.006319
    13  C    0.799377  -0.006177
    14  C   -0.404323   0.004603
    15  C   -0.234502   0.002327
    16  C    0.799380  -0.006178
    17  N    0.510470   0.006320
    18  C    0.267397  -0.003301
    19  C   -0.234499   0.002327
    20  C   -0.404325   0.004603
    21  C    0.401746   0.001610
    22  C    0.101232  -0.025765
    23  N    0.545997   0.003355
    24  C    0.261583  -0.027450
    25  C   -0.255479  -0.002204
    26  C   -0.308070  -0.001229
    27  C    0.073092   0.004866
    49  O    0.252916   0.015096
         Mulliken charges and spin densities condensed to fragments:
      1      0.252912      0.015096
      2      0.747088      0.984904
 Electronic spatial extent (au):  <R**2>=           7883.8942
 Charge=              1.0000 electrons
 Dipole moment (field-independent basis, Debye):
    X=              1.6368    Y=              0.0000    Z=              0.0000  Tot=              1.6368
 Quadrupole moment (field-independent basis, Debye-Ang):
   XX=           -113.1367   YY=           -113.7243   ZZ=           -140.9201
   XY=              0.0000   XZ=              0.0001   YZ=              0.5307
 Traceless Quadrupole moment (field-independent basis, Debye-Ang):
   XX=              9.4570   YY=              8.8694   ZZ=            -18.3264
   XY=              0.0000   XZ=              0.0001   YZ=              0.5307
 Octapole moment (field-independent basis, Debye-Ang**2):
  XXX=            -15.0264  YYY=              0.0000  ZZZ=             -0.0001  XYY=            -18.0219
  XXY=              0.0002  XXZ=              0.0000  XZZ=             22.5911  YZZ=              0.0000
  YYZ=              0.0001  XYZ=              0.4844
 Hexadecapole moment (field-independent basis, Debye-Ang**3):
 XXXX=          -4516.8971 YYYY=          -4245.4880 ZZZZ=           -527.6767 XXXY=             -0.0010
 XXXZ=             -0.0001 YYYX=              0.0005 YYYZ=            -20.1316 ZZZX=              0.0011
 ZZZY=              4.0173 XXYY=          -1354.6074 XXZZ=           -946.7171 YYZZ=           -888.1371
 XXYZ=              8.1481 YYXZ=              0.0000 ZZXY=             -0.0001
 N-N= 3.209285990415D+03 E-N=-1.227589553973D+04  KE= 2.486176785059D+03
                          Isotropic Fermi Contact Couplings
        Atom                 a.u.       MegaHertz       Gauss      10(-4) cm-1
     1  O(17)              0.10063     -60.99954     -21.76615     -20.34726
     2  H(1)               0.00011       0.50037       0.17854       0.16690
     3  H(1)               0.00008       0.37024       0.13211       0.12350
     4  Co(59)             0.17348     183.52459      65.48614      61.21721
     5  N(14)             -0.00603      -1.94740      -0.69488      -0.64958
     6  C(13)             -0.00138      -1.55534      -0.55499      -0.51881
     7  C(13)              0.00016       0.18343       0.06545       0.06119
     8  C(13)              0.00040       0.44587       0.15910       0.14873
     9  C(13)             -0.00227      -2.55162      -0.91048      -0.85113
    10  C(13)              0.00148       1.66282       0.59333       0.55466
    11  C(13)             -0.00129      -1.45181      -0.51804      -0.48427
    12  N(14)             -0.00814      -2.63013      -0.93849      -0.87732
    13  C(13)              0.00009       0.09739       0.03475       0.03249
    14  C(13)              0.00006       0.06301       0.02248       0.02102
    15  C(13)             -0.00004      -0.03936      -0.01405      -0.01313
    16  C(13)              0.00009       0.09740       0.03475       0.03249
    17  N(14)             -0.00814      -2.63011      -0.93849      -0.87731
    18  C(13)             -0.00129      -1.45180      -0.51804      -0.48427
    19  C(13)             -0.00004      -0.03936      -0.01405      -0.01313
    20  C(13)              0.00006       0.06302       0.02249       0.02102
    21  C(13)              0.00174       1.95135       0.69629       0.65090
    22  C(13)             -0.00227      -2.55162      -0.91048      -0.85113
    23  N(14)             -0.00603      -1.94740      -0.69488      -0.64958
    24  C(13)             -0.00138      -1.55534      -0.55498      -0.51881
    25  C(13)              0.00016       0.18342       0.06545       0.06118
    26  C(13)              0.00040       0.44586       0.15909       0.14872
    27  C(13)              0.00148       1.66282       0.59333       0.55466
    28  H(1)               0.00019       0.83701       0.29867       0.27920
    29  H(1)               0.00019       0.83702       0.29867       0.27920
    30  H(1)              -0.00003      -0.14147      -0.05048      -0.04719
    31  H(1)              -0.00006      -0.26318      -0.09391      -0.08779
    32  H(1)              -0.00006      -0.26318      -0.09391      -0.08779
    33  H(1)               0.00001       0.04840       0.01727       0.01615
    34  H(1)              -0.00004      -0.17765      -0.06339      -0.05926
    35  H(1)              -0.00034      -1.52455      -0.54400      -0.50853
    36  H(1)              -0.00020      -0.89158      -0.31814      -0.29740
    37  H(1)              -0.00031      -1.40559      -0.50155      -0.46886
    38  H(1)              -0.00041      -1.82267      -0.65037      -0.60798
    39  H(1)              -0.00034      -1.52447      -0.54397      -0.50851
    40  H(1)               0.00001       0.04840       0.01727       0.01615
    41  H(1)              -0.00004      -0.17765      -0.06339      -0.05926
    42  H(1)              -0.00041      -1.82268      -0.65038      -0.60798
    43  H(1)              -0.00020      -0.89158      -0.31814      -0.29740
    44  H(1)              -0.00018      -0.78954      -0.28173      -0.26336
    45  H(1)              -0.00018      -0.78959      -0.28174      -0.26338
    46  H(1)              -0.00056      -2.50089      -0.89238      -0.83421
    47  H(1)              -0.00031      -1.40556      -0.50154      -0.46885
    48  H(1)              -0.00056      -2.50087      -0.89237      -0.83420
    49  O(17)              0.10063     -61.00054     -21.76651     -20.34759
    50  H(1)               0.00008       0.37035       0.13215       0.12353
    51  H(1)               0.00011       0.50037       0.17854       0.16690
 --------------------------------------------------------
       Center         ----  Spin Dipole Couplings  ----
                      3XX-RR        3YY-RR        3ZZ-RR
 --------------------------------------------------------
     1   Atom       -0.069786     -0.093521      0.163307
     2   Atom       -0.011420     -0.002500      0.013919
     3   Atom       -0.007832     -0.003239      0.011071
     4   Atom       -1.421689     -1.251440      2.673129
     5   Atom       -0.001042      0.002392     -0.001351
     6   Atom        0.003218      0.014292     -0.017510
     7   Atom       -0.000596      0.001999     -0.001403
     8   Atom        0.001868     -0.000448     -0.001421
     9   Atom        0.018163      0.008945     -0.027109
    10   Atom       -0.007762      0.005321      0.002441
    11   Atom        0.006209      0.014426     -0.020635
    12   Atom       -0.008736      0.001066      0.007670
    13   Atom        0.008621     -0.004393     -0.004228
    14   Atom        0.002660     -0.001069     -0.001591
    15   Atom       -0.000312      0.001426     -0.001114
    16   Atom        0.008621     -0.004393     -0.004228
    17   Atom       -0.008736      0.001066      0.007670
    18   Atom        0.006209      0.014426     -0.020635
    19   Atom       -0.000312      0.001426     -0.001114
    20   Atom        0.002660     -0.001069     -0.001591
    21   Atom        0.006517     -0.007610      0.001093
    22   Atom        0.018163      0.008945     -0.027109
    23   Atom       -0.001042      0.002393     -0.001351
    24   Atom        0.003218      0.014292     -0.017510
    25   Atom       -0.000596      0.001999     -0.001403
    26   Atom        0.001868     -0.000448     -0.001421
    27   Atom       -0.007762      0.005321      0.002441
    28   Atom        0.006095     -0.004133     -0.001962
    29   Atom        0.006095     -0.004133     -0.001962
    30   Atom        0.003499     -0.002148     -0.001351
    31   Atom       -0.002115      0.003513     -0.001398
    32   Atom       -0.002115      0.003513     -0.001398
    33   Atom        0.002273     -0.000950     -0.001323
    34   Atom        0.001764     -0.000730     -0.001034
    35   Atom        0.001193     -0.000266     -0.000927
    36   Atom        0.000102      0.000933     -0.001035
    37   Atom       -0.000344      0.001390     -0.001046
    38   Atom        0.000205      0.000899     -0.001104
    39   Atom        0.001193     -0.000266     -0.000927
    40   Atom        0.002273     -0.000950     -0.001323
    41   Atom        0.001764     -0.000730     -0.001034
    42   Atom        0.000205      0.000899     -0.001104
    43   Atom        0.000102      0.000933     -0.001035
    44   Atom       -0.000390      0.001327     -0.000937
    45   Atom       -0.000390      0.001327     -0.000937
    46   Atom        0.001187     -0.000164     -0.001022
    47   Atom       -0.000344      0.001390     -0.001046
    48   Atom        0.001187     -0.000164     -0.001022
    49   Atom       -0.069785     -0.093522      0.163307
    50   Atom       -0.007832     -0.003239      0.011071
    51   Atom       -0.011420     -0.002499      0.013919
 --------------------------------------------------------
                        XY            XZ            YZ
 --------------------------------------------------------
     1   Atom        0.011808     -0.079506     -0.036021
     2   Atom        0.002315      0.001122      0.009316
     3   Atom       -0.005820      0.004749     -0.010233
     4   Atom       -0.000002      0.000006     -0.317522
     5   Atom       -0.014236     -0.001917      0.002398
     6   Atom       -0.004844      0.000587     -0.001699
     7   Atom       -0.002034      0.000086     -0.000042
     8   Atom       -0.001971     -0.000067      0.000075
     9   Atom       -0.005960      0.000175      0.000801
    10   Atom        0.001068     -0.000542      0.000652
    11   Atom        0.006148      0.002223     -0.000857
    12   Atom        0.011278     -0.001679      0.001570
    13   Atom        0.005391      0.001319      0.000691
    14   Atom        0.002391     -0.000066     -0.000013
    15   Atom        0.001960      0.000082      0.000074
    16   Atom       -0.005391     -0.001320      0.000691
    17   Atom       -0.011278      0.001679      0.001570
    18   Atom       -0.006148     -0.002223     -0.000857
    19   Atom       -0.001960     -0.000082      0.000074
    20   Atom       -0.002391      0.000066     -0.000013
    21   Atom        0.000000      0.000000     -0.000349
    22   Atom        0.005960     -0.000175      0.000801
    23   Atom        0.014236      0.001917      0.002398
    24   Atom        0.004844     -0.000587     -0.001699
    25   Atom        0.002034     -0.000086     -0.000042
    26   Atom        0.001971      0.000067      0.000075
    27   Atom       -0.001068      0.000542      0.000652
    28   Atom        0.001829      0.004544      0.000829
    29   Atom       -0.001829     -0.004544      0.000829
    30   Atom        0.000000      0.000000     -0.000023
    31   Atom       -0.000448      0.000035     -0.000034
    32   Atom        0.000448     -0.000035     -0.000034
    33   Atom       -0.001843      0.000977     -0.000509
    34   Atom       -0.001213     -0.000243      0.000111
    35   Atom       -0.001396      0.000211     -0.000180
    36   Atom       -0.001580      0.000147     -0.000117
    37   Atom        0.001597     -0.000384     -0.000562
    38   Atom       -0.001783     -0.000529      0.000598
    39   Atom        0.001396     -0.000211     -0.000180
    40   Atom        0.001843     -0.000977     -0.000509
    41   Atom        0.001213      0.000243      0.000111
    42   Atom        0.001783      0.000529      0.000598
    43   Atom        0.001580     -0.000147     -0.000117
    44   Atom        0.001358      0.000162      0.000206
    45   Atom       -0.001358     -0.000162      0.000206
    46   Atom        0.001567      0.000442      0.000322
    47   Atom       -0.001597      0.000384     -0.000562
    48   Atom       -0.001567     -0.000442      0.000322
    49   Atom       -0.011808      0.079509     -0.036020
    50   Atom        0.005820     -0.004749     -0.010233
    51   Atom       -0.002315     -0.001122      0.009316
 --------------------------------------------------------


 ---------------------------------------------------------------------------------
              Anisotropic Spin Dipole Couplings in Principal Axis System
 ---------------------------------------------------------------------------------

       Atom             a.u.   MegaHertz   Gauss  10(-4) cm-1        Axes

              Baa    -0.0986     7.137     2.547     2.381 -0.1817  0.9801  0.0796
     1 O(17)  Bbb    -0.0942     6.818     2.433     2.274  0.9388  0.1488  0.3106
              Bcc     0.1929   -13.955    -4.980    -4.655 -0.2926 -0.1312  0.9472
 
              Baa    -0.0121    -6.433    -2.295    -2.146  0.9538 -0.2934  0.0640
     2 H(1)   Bbb    -0.0062    -3.309    -1.181    -1.104  0.2928  0.8613 -0.4151
              Bcc     0.0183     9.742     3.476     3.250  0.0667  0.4147  0.9075
 
              Baa    -0.0120    -6.425    -2.293    -2.143  0.7476  0.6504  0.1344
     3 H(1)   Bbb    -0.0062    -3.313    -1.182    -1.105  0.6117 -0.5955 -0.5208
              Bcc     0.0183     9.738     3.475     3.248  0.2587 -0.4715  0.8431
 
              Baa    -1.4217  -179.530   -64.061   -59.885  1.0000  0.0000  0.0000
     4 Co(59) Bbb    -1.2770  -161.254   -57.539   -53.789  0.0000  0.9968  0.0801
              Bcc     2.6987   340.784   121.600   113.673  0.0000 -0.0801  0.9968
 
              Baa    -0.0137    -0.527    -0.188    -0.176  0.7473  0.6644 -0.0131
     5 N(14)  Bbb    -0.0019    -0.073    -0.026    -0.024  0.1281 -0.1247  0.9839
              Bcc     0.0156     0.601     0.214     0.200 -0.6521  0.7369  0.1783
 
              Baa    -0.0176    -2.363    -0.843    -0.788 -0.0164  0.0507  0.9986
     6 C(13)  Bbb     0.0014     0.188     0.067     0.063  0.9362  0.3514 -0.0025
              Bcc     0.0162     2.175     0.776     0.725 -0.3510  0.9349 -0.0532
 
              Baa    -0.0017    -0.231    -0.082    -0.077  0.8654  0.4713 -0.1704
     7 C(13)  Bbb    -0.0014    -0.187    -0.067    -0.062  0.1412  0.0969  0.9852
              Bcc     0.0031     0.418     0.149     0.139 -0.4809  0.8766 -0.0172
 
              Baa    -0.0016    -0.212    -0.076    -0.071  0.4836  0.8532 -0.1953
     8 C(13)  Bbb    -0.0014    -0.190    -0.068    -0.063  0.1155  0.1590  0.9805
              Bcc     0.0030     0.402     0.144     0.134  0.8676 -0.4967 -0.0217
 
              Baa    -0.0271    -3.640    -1.299    -1.214 -0.0069 -0.0233  0.9997
     9 C(13)  Bbb     0.0060     0.810     0.289     0.270  0.4408  0.8973  0.0240
              Bcc     0.0211     2.830     1.010     0.944  0.8976 -0.4408 -0.0041
 
              Baa    -0.0079    -1.058    -0.377    -0.353  0.9949 -0.0833  0.0575
    10 C(13)  Bbb     0.0024     0.316     0.113     0.105 -0.0725 -0.1892  0.9793
              Bcc     0.0055     0.742     0.265     0.247  0.0707  0.9784  0.1943
 
              Baa    -0.0209    -2.801    -0.999    -0.934 -0.0908  0.0400  0.9951
    11 C(13)  Bbb     0.0032     0.424     0.151     0.141  0.8767 -0.4708  0.0989
              Bcc     0.0177     2.377     0.848     0.793  0.4724  0.8813  0.0077
 
              Baa    -0.0163    -0.630    -0.225    -0.210  0.8317 -0.5472  0.0939
    12 N(14)  Bbb     0.0077     0.296     0.106     0.099 -0.3175 -0.3301  0.8889
              Bcc     0.0087     0.334     0.119     0.111  0.4554  0.7692  0.4483
 
              Baa    -0.0064    -0.853    -0.304    -0.285 -0.3291  0.9389 -0.1009
    13 C(13)  Bbb    -0.0044    -0.584    -0.208    -0.195 -0.1265  0.0621  0.9900
              Bcc     0.0107     1.437     0.513     0.479  0.9358  0.3386  0.0983
 
              Baa    -0.0022    -0.300    -0.107    -0.100 -0.4389  0.8981 -0.0268
    14 C(13)  Bbb    -0.0016    -0.214    -0.076    -0.071 -0.0011  0.0293  0.9996
              Bcc     0.0038     0.514     0.183     0.171  0.8985  0.4388 -0.0119
 
              Baa    -0.0016    -0.213    -0.076    -0.071  0.8375 -0.5431 -0.0595
    15 C(13)  Bbb    -0.0011    -0.150    -0.053    -0.050  0.0347 -0.0558  0.9978
              Bcc     0.0027     0.363     0.129     0.121  0.5453  0.8378  0.0279
 
              Baa    -0.0064    -0.853    -0.304    -0.285  0.3291  0.9389 -0.1009
    16 C(13)  Bbb    -0.0044    -0.584    -0.208    -0.195  0.1265  0.0621  0.9900
              Bcc     0.0107     1.437     0.513     0.479  0.9358 -0.3386 -0.0983
 
              Baa    -0.0163    -0.630    -0.225    -0.210  0.8317  0.5472 -0.0939
    17 N(14)  Bbb     0.0077     0.296     0.106     0.099  0.3176 -0.3301  0.8889
              Bcc     0.0087     0.334     0.119     0.111 -0.4554  0.7692  0.4483
 
              Baa    -0.0209    -2.801    -0.999    -0.934  0.0908  0.0400  0.9951
    18 C(13)  Bbb     0.0032     0.424     0.151     0.141  0.8767  0.4708 -0.0989
              Bcc     0.0177     2.377     0.848     0.793 -0.4724  0.8813  0.0077
 
              Baa    -0.0016    -0.213    -0.076    -0.071  0.8375  0.5431  0.0595
    19 C(13)  Bbb    -0.0011    -0.150    -0.053    -0.050 -0.0346 -0.0558  0.9978
              Bcc     0.0027     0.363     0.129     0.121 -0.5453  0.8378  0.0279
 
              Baa    -0.0022    -0.300    -0.107    -0.100  0.4389  0.8981 -0.0268
    20 C(13)  Bbb    -0.0016    -0.214    -0.076    -0.071  0.0011  0.0293  0.9996
              Bcc     0.0038     0.514     0.183     0.171  0.8985 -0.4388  0.0119
 
              Baa    -0.0076    -1.023    -0.365    -0.341  0.0000  0.9992  0.0400
    21 C(13)  Bbb     0.0011     0.149     0.053     0.050  0.0000 -0.0400  0.9992
              Bcc     0.0065     0.875     0.312     0.292  1.0000  0.0000  0.0000
 
              Baa    -0.0271    -3.640    -1.299    -1.214  0.0069 -0.0233  0.9997
    22 C(13)  Bbb     0.0060     0.810     0.289     0.270 -0.4408  0.8973  0.0240
              Bcc     0.0211     2.830     1.010     0.944  0.8976  0.4408  0.0041
 
              Baa    -0.0137    -0.527    -0.188    -0.176  0.7473 -0.6644  0.0131
    23 N(14)  Bbb    -0.0019    -0.073    -0.026    -0.024 -0.1281 -0.1247  0.9839
              Bcc     0.0156     0.601     0.214     0.200  0.6521  0.7369  0.1783
 
              Baa    -0.0176    -2.363    -0.843    -0.788  0.0164  0.0507  0.9986
    24 C(13)  Bbb     0.0014     0.188     0.067     0.063  0.9362 -0.3514  0.0025
              Bcc     0.0162     2.175     0.776     0.725  0.3510  0.9349 -0.0532
 
              Baa    -0.0017    -0.231    -0.082    -0.077  0.8654 -0.4713  0.1704
    25 C(13)  Bbb    -0.0014    -0.187    -0.067    -0.062 -0.1412  0.0969  0.9852
              Bcc     0.0031     0.418     0.149     0.139  0.4809  0.8766 -0.0173
 
              Baa    -0.0016    -0.212    -0.076    -0.071 -0.4836  0.8532 -0.1953
    26 C(13)  Bbb    -0.0014    -0.190    -0.068    -0.063 -0.1155  0.1590  0.9805
              Bcc     0.0030     0.402     0.144     0.134  0.8676  0.4967  0.0217
 
              Baa    -0.0079    -1.058    -0.377    -0.353  0.9949  0.0833 -0.0575
    27 C(13)  Bbb     0.0024     0.316     0.113     0.105  0.0725 -0.1892  0.9793
              Bcc     0.0055     0.742     0.265     0.247 -0.0707  0.9784  0.1943
 
              Baa    -0.0045    -2.376    -0.848    -0.793 -0.1389  0.9875 -0.0751
    28 H(1)   Bbb    -0.0040    -2.137    -0.763    -0.713 -0.4119  0.0114  0.9111
              Bcc     0.0085     4.514     1.611     1.506  0.9006  0.1575  0.4052
 
              Baa    -0.0045    -2.376    -0.848    -0.793  0.1389  0.9875 -0.0751
    29 H(1)   Bbb    -0.0040    -2.137    -0.763    -0.713  0.4119  0.0114  0.9111
              Bcc     0.0085     4.514     1.611     1.506  0.9006 -0.1575 -0.4052
 
              Baa    -0.0021    -1.146    -0.409    -0.382  0.0000  0.9996  0.0294
    30 H(1)   Bbb    -0.0014    -0.720    -0.257    -0.240  0.0000 -0.0294  0.9996
              Bcc     0.0035     1.867     0.666     0.623  1.0000  0.0000  0.0000
 
              Baa    -0.0022    -1.148    -0.410    -0.383  0.9960  0.0786 -0.0428
    31 H(1)   Bbb    -0.0014    -0.745    -0.266    -0.249  0.0421  0.0107  0.9991
              Bcc     0.0035     1.893     0.676     0.632 -0.0789  0.9969 -0.0073
 
              Baa    -0.0022    -1.148    -0.410    -0.383  0.9960 -0.0786  0.0428
    32 H(1)   Bbb    -0.0014    -0.745    -0.266    -0.249 -0.0421  0.0107  0.9991
              Bcc     0.0035     1.893     0.676     0.632  0.0789  0.9969 -0.0073
 
              Baa    -0.0018    -0.961    -0.343    -0.321  0.3493  0.9038  0.2474
    33 H(1)   Bbb    -0.0016    -0.835    -0.298    -0.279 -0.3065 -0.1393  0.9416
              Bcc     0.0034     1.797     0.641     0.599  0.8855 -0.4048  0.2284
 
              Baa    -0.0012    -0.653    -0.233    -0.218  0.3707  0.9264 -0.0665
    34 H(1)   Bbb    -0.0011    -0.563    -0.201    -0.188  0.0994  0.0316  0.9945
              Bcc     0.0023     1.215     0.434     0.405  0.9234 -0.3752 -0.0804
 
              Baa    -0.0011    -0.599    -0.214    -0.200  0.4831  0.8391  0.2501
    35 H(1)   Bbb    -0.0009    -0.502    -0.179    -0.167 -0.2058 -0.1688  0.9639
              Bcc     0.0021     1.101     0.393     0.367  0.8511 -0.5171  0.0911
 
              Baa    -0.0011    -0.607    -0.217    -0.202  0.7272  0.5301 -0.4361
    36 H(1)   Bbb    -0.0010    -0.546    -0.195    -0.182  0.3143  0.3077  0.8981
              Bcc     0.0022     1.153     0.411     0.385 -0.6103  0.7901 -0.0571
 
              Baa    -0.0013    -0.698    -0.249    -0.233  0.8469 -0.4389  0.3001
    37 H(1)   Bbb    -0.0012    -0.621    -0.221    -0.207 -0.1696  0.3120  0.9348
              Bcc     0.0025     1.319     0.471     0.440  0.5039  0.8426 -0.1898
 
              Baa    -0.0013    -0.693    -0.247    -0.231  0.5795  0.2599  0.7724
    38 H(1)   Bbb    -0.0012    -0.663    -0.237    -0.221  0.5260  0.6047 -0.5981
              Bcc     0.0025     1.356     0.484     0.452 -0.6225  0.7529  0.2138
 
              Baa    -0.0011    -0.599    -0.214    -0.200 -0.4831  0.8391  0.2501
    39 H(1)   Bbb    -0.0009    -0.502    -0.179    -0.167  0.2058 -0.1688  0.9639
              Bcc     0.0021     1.101     0.393     0.367  0.8511  0.5171 -0.0911
 
              Baa    -0.0018    -0.961    -0.343    -0.321 -0.3493  0.9038  0.2474
    40 H(1)   Bbb    -0.0016    -0.835    -0.298    -0.279  0.3065 -0.1393  0.9416
              Bcc     0.0034     1.797     0.641     0.599  0.8854  0.4048 -0.2284
 
              Baa    -0.0012    -0.653    -0.233    -0.218 -0.3707  0.9264 -0.0665
    41 H(1)   Bbb    -0.0011    -0.563    -0.201    -0.188 -0.0994  0.0316  0.9945
              Bcc     0.0023     1.215     0.434     0.405  0.9234  0.3753  0.0804
 
              Baa    -0.0013    -0.693    -0.247    -0.231 -0.5795  0.2599  0.7724
    42 H(1)   Bbb    -0.0012    -0.663    -0.237    -0.221 -0.5260  0.6047 -0.5981
              Bcc     0.0025     1.356     0.484     0.452  0.6225  0.7529  0.2138
 
              Baa    -0.0011    -0.607    -0.217    -0.202  0.7272 -0.5301  0.4361
    43 H(1)   Bbb    -0.0010    -0.546    -0.195    -0.182 -0.3143  0.3077  0.8981
              Bcc     0.0022     1.153     0.411     0.385  0.6102  0.7901 -0.0572
 
              Baa    -0.0011    -0.612    -0.218    -0.204  0.8633 -0.4558 -0.2168
    44 H(1)   Bbb    -0.0009    -0.507    -0.181    -0.169  0.1504 -0.1777  0.9725
              Bcc     0.0021     1.119     0.399     0.373  0.4818  0.8722  0.0848
 
              Baa    -0.0011    -0.612    -0.218    -0.204  0.8633  0.4558  0.2168
    45 H(1)   Bbb    -0.0009    -0.507    -0.181    -0.169 -0.1504 -0.1777  0.9725
              Bcc     0.0021     1.119     0.399     0.373 -0.4818  0.8722  0.0848
 
              Baa    -0.0012    -0.642    -0.229    -0.214 -0.4916  0.8268 -0.2736
    46 H(1)   Bbb    -0.0011    -0.589    -0.210    -0.197 -0.2825  0.1457  0.9481
              Bcc     0.0023     1.231     0.439     0.411  0.8237  0.5434  0.1620
 
              Baa    -0.0013    -0.698    -0.249    -0.233  0.8469  0.4389 -0.3001
    47 H(1)   Bbb    -0.0012    -0.621    -0.221    -0.207  0.1696  0.3120  0.9348
              Bcc     0.0025     1.319     0.471     0.440 -0.5039  0.8426 -0.1898
 
              Baa    -0.0012    -0.642    -0.229    -0.214  0.4916  0.8268 -0.2736
    48 H(1)   Bbb    -0.0011    -0.589    -0.210    -0.197  0.2826  0.1458  0.9481
              Bcc     0.0023     1.231     0.439     0.411  0.8237 -0.5434 -0.1619
 
              Baa    -0.0986     7.137     2.547     2.381  0.1817  0.9801  0.0796
    49 O(17)  Bbb    -0.0942     6.818     2.433     2.274  0.9388 -0.1488 -0.3107
              Bcc     0.1929   -13.955    -4.980    -4.655  0.2926 -0.1312  0.9472
 
              Baa    -0.0120    -6.425    -2.293    -2.143  0.7476 -0.6505 -0.1344
    50 H(1)   Bbb    -0.0062    -3.313    -1.182    -1.105  0.6117  0.5955  0.5207
              Bcc     0.0183     9.738     3.475     3.248 -0.2587 -0.4715  0.8431
 
              Baa    -0.0121    -6.433    -2.295    -2.146  0.9538  0.2934 -0.0640
    51 H(1)   Bbb    -0.0062    -3.309    -1.181    -1.104 -0.2928  0.8613 -0.4151
              Bcc     0.0183     9.742     3.476     3.250 -0.0667  0.4147  0.9075
 

 ---------------------------------------------------------------------------------

 CPIOFr:  IOpCl= 1 IRwI=-1 IRwCP=  731 ICalc= -1 LCPTot=      939367 Len1MO=     3073640 IndFrg=      939367
 CPIOFr:  IOpCl= 1 IRwI=-1 IRwCP=  731 ICalc=  0 LCPTot=      939367 Len1MO=     3073640 IndFrg=     4013007
 Counterpoise: doing DCBS calculation for fragment   1 NewBq=T
 Basis read from rwf:  (5D, 7F)
 There are   815 symmetry adapted cartesian basis functions of A   symmetry.
 There are   783 symmetry adapted basis functions of A   symmetry.
   783 basis functions,  1219 primitive gaussians,   815 cartesian basis functions
     5 alpha electrons        5 beta electrons
       nuclear repulsion energy         9.0004465768 Hartrees.
 NAtoms=   51 NActive=   51 NUniq=   51 SFac= 1.00D+00 NAtFMM=   60 NAOKFM=F Big=F
 Integral buffers will be    131072 words long.
 Raffenetti 2 integral format.
 Two-electron integral symmetry is turned on.
 One-electron integrals computed using PRISM.
 NBasis=   783 RedAO= T EigKep=  1.04D-06  NBF=   783
 NBsUse=   778 1.00D-06 EigRej=  7.17D-07 NBFU=   778
 ExpMin= 1.33D-02 ExpMax= 2.71D+05 ExpMxC= 9.06D+03 IAcc=3 IRadAn=         5 AccDes= 0.00D+00
 Harris functional with IExCor= 1009 and IRadAn=       5 diagonalized for initial guess.
 HarFok:  IExCor= 1009 AccDes= 0.00D+00 IRadAn=         5 IDoV= 1 UseB2=F ITyADJ=14
 ICtDFT=  3500011 ScaDFX=  1.000000  1.000000  1.000000  1.000000
 FoFCou: FMM=F IPFlag=           0 FMFlag=      100000 FMFlg1=           0
         NFxFlg=           0 DoJE=T BraDBF=F KetDBF=T FulRan=T
         wScrn=  0.000000 ICntrl=     500 IOpCl=  0 I1Cent=   200000004 NGrid=           0
         NMat0=    1 NMatS0=      1 NMatT0=    0 NMatD0=    1 NMtDS0=    0 NMtDT0=    0
 Petite list used in FoFCou.
 Initial guess <Sx>= 0.0000 <Sy>= 0.0000 <Sz>= 0.0000 <S**2>= 0.0000 S= 0.0000
 Requested convergence on RMS density matrix=1.00D-08 within 128 cycles.
 Requested convergence on MAX density matrix=1.00D-06.
 Requested convergence on             energy=1.00D-06.
 No special actions if energy rises.
 DSYEVD-2 returned Info=      455616 IAlg= 4 N=   778 NDim=   778 NE2=     1176713 trying  DSYEV.
 DSYEVD-2 returned Info=      455616 IAlg= 4 N=   778 NDim=   778 NE2=     1176713 trying  DSYEV.
 SCF Done:  E(UTPSS-TPSS) =  -76.4616872531     A.U. after   10 cycles
            NFock= 10  Conv=0.72D-09     -V/T= 2.0037
 <Sx>= 0.0000 <Sy>= 0.0000 <Sz>= 0.0000 <S**2>= 0.0000 S= 0.0000
 <L.S>= 0.000000000000E+00
 Annihilation of the first spin contaminant:
 S**2 before annihilation     0.0000,   after     0.0000

 **********************************************************************

            Population analysis using the SCF density.

 **********************************************************************

 Orbital symmetries:
 Alpha Orbitals:
       Occupied  (A) (A) (A) (A) (A)
       Virtual   (A) (A) (A) (A) (A) (A) (A) (A) (A) (A) (A) (A)
                 (A) (A) (A) (A) (A) (A) (A) (A) (A) (A) (A) (A)
                 (A) (A) (A) (A) (A) (A) (A) (A) (A) (A) (A) (A)
                 (A) (A) (A) (A) (A) (A) (A) (A) (A) (A) (A) (A)
                 (A) (A) (A) (A) (A) (A) (A) (A) (A) (A) (A) (A)
                 (A) (A) (A) (A) (A) (A) (A) (A) (A) (A) (A) (A)
                 (A) (A) (A) (A) (A) (A) (A) (A) (A) (A) (A) (A)
                 (A) (A) (A) (A) (A) (A) (A) (A) (A) (A) (A) (A)
                 (A) (A) (A) (A) (A) (A) (A) (A) (A) (A) (A) (A)
                 (A) (A) (A) (A) (A) (A) (A) (A) (A) (A) (A) (A)
                 (A) (A) (A) (A) (A) (A) (A) (A) (A) (A) (A) (A)
                 (A) (A) (A) (A) (A) (A) (A) (A) (A) (A) (A) (A)
                 (A) (A) (A) (A) (A) (A) (A) (A) (A) (A) (A) (A)
                 (A) (A) (A) (A) (A) (A) (A) (A) (A) (A) (A) (A)
                 (A) (A) (A) (A) (A) (A) (A) (A) (A) (A) (A) (A)
                 (A) (A) (A) (A) (A) (A) (A) (A) (A) (A) (A) (A)
                 (A) (A) (A) (A) (A) (A) (A) (A) (A) (A) (A) (A)
                 (A) (A) (A) (A) (A) (A) (A) (A) (A) (A) (A) (A)
                 (A) (A) (A) (A) (A) (A) (A) (A) (A) (A) (A) (A)
                 (A) (A) (A) (A) (A) (A) (A) (A) (A) (A) (A) (A)
                 (A) (A) (A) (A) (A) (A) (A) (A) (A) (A) (A) (A)
                 (A) (A) (A) (A) (A) (A) (A) (A) (A) (A) (A) (A)
                 (A) (A) (A) (A) (A) (A) (A) (A) (A) (A) (A) (A)
                 (A) (A) (A) (A) (A) (A) (A) (A) (A) (A) (A) (A)
[...]
    25   Atom       -0.000602      0.001936     -0.001334
    26   Atom        0.001814     -0.000508     -0.001306
    27   Atom       -0.007649      0.005255      0.002394
    28   Atom        0.006396     -0.004185     -0.002211
    29   Atom        0.005963     -0.004109     -0.001854
    30   Atom        0.003616     -0.002222     -0.001394
    31   Atom       -0.002107      0.003538     -0.001431
    32   Atom       -0.002237      0.003658     -0.001421
    33   Atom        0.002308     -0.000945     -0.001362
    34   Atom        0.001772     -0.000732     -0.001040
    35   Atom        0.001195     -0.000241     -0.000954
    36   Atom        0.000134      0.000935     -0.001069
    37   Atom       -0.000328      0.001420     -0.001092
    38   Atom        0.000229      0.000879     -0.001108
    39   Atom        0.001210     -0.000236     -0.000974
    40   Atom        0.002271     -0.000940     -0.001331
    41   Atom        0.001768     -0.000726     -0.001042
    42   Atom        0.000258      0.000906     -0.001164
    43   Atom        0.000137      0.000917     -0.001054
    44   Atom       -0.000389      0.001348     -0.000959
    45   Atom       -0.000360      0.001336     -0.000976
    46   Atom        0.001187     -0.000138     -0.001050
    47   Atom       -0.000325      0.001402     -0.001077
    48   Atom        0.001191     -0.000120     -0.001071
    49   Atom       -0.079630     -0.104109      0.183739
    50   Atom       -0.007595     -0.002917      0.010512
    51   Atom       -0.011697     -0.001743      0.013440
 --------------------------------------------------------
                        XY            XZ            YZ
 --------------------------------------------------------
     4   Atom        0.042284      0.048534     -0.315284
     5   Atom       -0.008374     -0.009451      0.010868
     6   Atom       -0.004941      0.000560     -0.001609
     7   Atom       -0.001757      0.000027      0.000041
     8   Atom       -0.001842     -0.000053      0.000056
     9   Atom       -0.006135      0.000341      0.000655
    10   Atom        0.000996     -0.000798      0.001544
    11   Atom        0.006239      0.001562     -0.001590
    12   Atom        0.005969      0.006487      0.007117
    13   Atom        0.005161      0.000601      0.000728
    14   Atom        0.002249      0.000034      0.000041
    15   Atom        0.001724     -0.000066     -0.000017
    16   Atom       -0.005716     -0.001474      0.000611
    17   Atom       -0.006149      0.010361     -0.004423
    18   Atom       -0.006138     -0.002216      0.000743
    19   Atom       -0.001791     -0.000135      0.000090
    20   Atom       -0.002439      0.000057     -0.000074
    21   Atom        0.000023     -0.000681     -0.000464
    22   Atom        0.006074      0.000355      0.000737
    23   Atom        0.008527     -0.005602     -0.006052
    24   Atom        0.005103     -0.000441     -0.001029
    25   Atom        0.001930     -0.000042     -0.000030
    26   Atom        0.001823      0.000060      0.000065
    27   Atom       -0.001154      0.000497     -0.000003
    28   Atom        0.001905      0.004606      0.000806
    29   Atom       -0.001812     -0.004488      0.000859
    30   Atom        0.000009     -0.000017     -0.000025
    31   Atom       -0.000457      0.000035     -0.000053
    32   Atom        0.000480     -0.000046     -0.000031
    33   Atom       -0.001854      0.000981     -0.000500
    34   Atom       -0.001208     -0.000259      0.000122
    35   Atom       -0.001423      0.000216     -0.000200
    36   Atom       -0.001613      0.000160     -0.000097
    37   Atom        0.001612     -0.000405     -0.000588
    38   Atom       -0.001770     -0.000526      0.000596
    39   Atom        0.001433     -0.000215     -0.000200
    40   Atom        0.001815     -0.000976     -0.000505
    41   Atom        0.001211      0.000227      0.000113
    42   Atom        0.001803      0.000560      0.000595
    43   Atom        0.001581     -0.000163     -0.000107
    44   Atom        0.001361      0.000173      0.000210
    45   Atom       -0.001373     -0.000172      0.000193
    46   Atom        0.001584      0.000449      0.000341
    47   Atom       -0.001588      0.000401     -0.000565
    48   Atom       -0.001594     -0.000453      0.000349
    49   Atom       -0.012870      0.087206     -0.040608
    50   Atom        0.006528     -0.004840     -0.010308
    51   Atom       -0.002731     -0.001231      0.009620
 --------------------------------------------------------


 ---------------------------------------------------------------------------------
              Anisotropic Spin Dipole Couplings in Principal Axis System
 ---------------------------------------------------------------------------------

       Atom             a.u.   MegaHertz   Gauss  10(-4) cm-1        Axes

              Baa    -1.3670  -172.627   -61.598   -57.582  0.9580 -0.2845 -0.0349
     4 Co(59) Bbb    -1.1987  -151.370   -54.012   -50.491  0.2864  0.9550  0.0768
              Bcc     2.5657   323.996   115.610   108.074  0.0114 -0.0836  0.9964
 
              Baa    -0.0113    -0.435    -0.155    -0.145  0.7718  0.6355  0.0230
     5 N(14)  Bbb    -0.0088    -0.338    -0.121    -0.113  0.4365 -0.5556  0.7076
              Bcc     0.0200     0.773     0.276     0.258 -0.4625  0.5361  0.7062
 
              Baa    -0.0154    -2.067    -0.737    -0.689 -0.0163  0.0540  0.9984
     6 C(13)  Bbb     0.0005     0.067     0.024     0.022  0.9285  0.3713 -0.0049
              Bcc     0.0149     2.000     0.714     0.667 -0.3710  0.9269 -0.0562
 
              Baa    -0.0016    -0.211    -0.075    -0.071  0.8860  0.4472 -0.1226
     7 C(13)  Bbb    -0.0012    -0.165    -0.059    -0.055  0.1122  0.0498  0.9924
              Bcc     0.0028     0.376     0.134     0.125 -0.4499  0.8930  0.0061
 
              Baa    -0.0015    -0.199    -0.071    -0.066  0.4914  0.8609 -0.1318
     8 C(13)  Bbb    -0.0013    -0.176    -0.063    -0.059  0.0810  0.1055  0.9911
              Bcc     0.0028     0.375     0.134     0.125  0.8671 -0.4977 -0.0179
 
              Baa    -0.0235    -3.153    -1.125    -1.052 -0.0123 -0.0236  0.9996
     9 C(13)  Bbb     0.0042     0.566     0.202     0.189  0.4570  0.8891  0.0266
              Bcc     0.0193     2.588     0.923     0.863  0.8894 -0.4572  0.0001
 
              Baa    -0.0088    -1.186    -0.423    -0.396  0.9941 -0.0837  0.0696
    10 C(13)  Bbb     0.0029     0.395     0.141     0.132  0.1085  0.7178 -0.6877
              Bcc     0.0059     0.791     0.282     0.264  0.0076  0.6912  0.7226
 
              Baa    -0.0174    -2.338    -0.834    -0.780 -0.0892  0.0722  0.9934
    11 C(13)  Bbb     0.0016     0.220     0.079     0.073  0.8618 -0.4944  0.1134
              Bcc     0.0158     2.118     0.756     0.706  0.4993  0.8662 -0.0181
 
              Baa    -0.0162    -0.626    -0.224    -0.209  0.9544 -0.2545 -0.1561
    12 N(14)  Bbb    -0.0016    -0.061    -0.022    -0.020  0.1406  0.8445 -0.5168
              Bcc     0.0178     0.687     0.245     0.229  0.2634  0.4713  0.8418
 
              Baa    -0.0064    -0.859    -0.307    -0.287 -0.3021  0.9227 -0.2394
    13 C(13)  Bbb    -0.0043    -0.574    -0.205    -0.191 -0.1266  0.2101  0.9694
              Bcc     0.0107     1.433     0.512     0.478  0.9448  0.3232  0.0534
 
              Baa    -0.0021    -0.282    -0.101    -0.094 -0.4322  0.9008 -0.0410
    14 C(13)  Bbb    -0.0016    -0.209    -0.075    -0.070 -0.0262  0.0329  0.9991
              Bcc     0.0037     0.491     0.175     0.164  0.9014  0.4329  0.0094
 
              Baa    -0.0015    -0.200    -0.071    -0.067  0.8561 -0.5092  0.0879
    15 C(13)  Bbb    -0.0009    -0.127    -0.045    -0.042 -0.0681  0.0573  0.9960
              Bcc     0.0024     0.327     0.117     0.109  0.5123  0.8587 -0.0143
 
              Baa    -0.0065    -0.876    -0.312    -0.292  0.3632  0.9316 -0.0125
    16 C(13)  Bbb    -0.0040    -0.533    -0.190    -0.178  0.1078 -0.0287  0.9938
              Bcc     0.0105     1.409     0.503     0.470  0.9255 -0.3622 -0.1109
 
              Baa    -0.0165    -0.637    -0.227    -0.212  0.9172  0.2692 -0.2937
    17 N(14)  Bbb    -0.0015    -0.056    -0.020    -0.019 -0.1348  0.9034  0.4070
              Bcc     0.0180     0.693     0.247     0.231  0.3749 -0.3338  0.8649
 
              Baa    -0.0181    -2.426    -0.866    -0.809  0.0939 -0.0053  0.9956
    18 C(13)  Bbb     0.0018     0.242     0.086     0.081  0.8682  0.4898 -0.0793
              Bcc     0.0163     2.184     0.779     0.729 -0.4872  0.8718  0.0506
 
              Baa    -0.0015    -0.204    -0.073    -0.068  0.8470  0.5159  0.1284
    19 C(13)  Bbb    -0.0010    -0.133    -0.047    -0.044 -0.0875 -0.1029  0.9908
              Bcc     0.0025     0.336     0.120     0.112 -0.5244  0.8504  0.0420
 
              Baa    -0.0022    -0.297    -0.106    -0.099  0.4523  0.8894  0.0664
    20 C(13)  Bbb    -0.0016    -0.216    -0.077    -0.072 -0.0439 -0.0521  0.9977
              Bcc     0.0038     0.513     0.183     0.171  0.8908 -0.4542  0.0154
 
              Baa    -0.0081    -1.086    -0.387    -0.362  0.0005  0.9990  0.0448
    21 C(13)  Bbb     0.0021     0.287     0.102     0.096  0.1817 -0.0442  0.9824
              Bcc     0.0060     0.799     0.285     0.266  0.9834  0.0076 -0.1816
 
              Baa    -0.0235    -3.149    -1.123    -1.050 -0.0055 -0.0229  0.9997
    22 C(13)  Bbb     0.0042     0.566     0.202     0.189 -0.4540  0.8908  0.0179
              Bcc     0.0192     2.583     0.922     0.862  0.8910  0.4538  0.0152
 
              Baa    -0.0111    -0.427    -0.152    -0.142  0.7518 -0.6592  0.0138
    23 N(14)  Bbb    -0.0027    -0.105    -0.038    -0.035  0.4422  0.5196  0.7311
              Bcc     0.0138     0.532     0.190     0.178 -0.4891 -0.5435  0.6822
 
              Baa    -0.0155    -2.086    -0.745    -0.696  0.0153  0.0331  0.9993
    24 C(13)  Bbb     0.0003     0.038     0.014     0.013  0.9301 -0.3673 -0.0021
              Bcc     0.0153     2.049     0.731     0.683  0.3670  0.9295 -0.0364
 
              Baa    -0.0016    -0.221    -0.079    -0.074  0.8782 -0.4727  0.0735
    25 C(13)  Bbb    -0.0013    -0.179    -0.064    -0.060 -0.0597  0.0442  0.9972
              Bcc     0.0030     0.400     0.143     0.133  0.4746  0.8801 -0.0106
 
              Baa    -0.0015    -0.203    -0.072    -0.068 -0.4742  0.8697 -0.1366
    26 C(13)  Bbb    -0.0013    -0.175    -0.062    -0.058 -0.0835  0.1101  0.9904
              Bcc     0.0028     0.378     0.135     0.126  0.8764  0.4811  0.0205
 
              Baa    -0.0078    -1.043    -0.372    -0.348  0.9949  0.0881 -0.0486
    27 C(13)  Bbb     0.0024     0.324     0.116     0.108  0.0470  0.0202  0.9987
              Bcc     0.0054     0.719     0.257     0.240 -0.0890  0.9959 -0.0160
 
              Baa    -0.0045    -2.410    -0.860    -0.804 -0.1692  0.9856 -0.0068
    28 H(1)   Bbb    -0.0042    -2.246    -0.801    -0.749 -0.3885 -0.0603  0.9195
              Bcc     0.0087     4.656     1.662     1.553  0.9058  0.1582  0.3931
 
              Baa    -0.0044    -2.366    -0.844    -0.789  0.1206  0.9856 -0.1186
    29 H(1)   Bbb    -0.0039    -2.079    -0.742    -0.693  0.4224  0.0572  0.9046
              Bcc     0.0083     4.444     1.586     1.482  0.8984 -0.1592 -0.4094
 
              Baa    -0.0022    -1.186    -0.423    -0.396 -0.0015  0.9996  0.0297
    30 H(1)   Bbb    -0.0014    -0.743    -0.265    -0.248  0.0035 -0.0297  0.9996
              Bcc     0.0036     1.929     0.688     0.643  1.0000  0.0016 -0.0034
 
              Baa    -0.0021    -1.145    -0.408    -0.382  0.9959  0.0796 -0.0424
    31 H(1)   Bbb    -0.0014    -0.763    -0.272    -0.255  0.0414  0.0145  0.9990
              Bcc     0.0036     1.908     0.681     0.636 -0.0802  0.9967 -0.0112
 
              Baa    -0.0023    -1.216    -0.434    -0.406  0.9955 -0.0802  0.0510
    32 H(1)   Bbb    -0.0014    -0.757    -0.270    -0.252 -0.0503  0.0108  0.9987
              Bcc     0.0037     1.973     0.704     0.658  0.0806  0.9967 -0.0068
 
              Baa    -0.0018    -0.960    -0.342    -0.320  0.3472  0.9029  0.2535
    33 H(1)   Bbb    -0.0016    -0.855    -0.305    -0.285 -0.3056 -0.1466  0.9408
              Bcc     0.0034     1.815     0.648     0.605  0.8866 -0.4041  0.2250
 
              Baa    -0.0012    -0.652    -0.233    -0.217  0.3651  0.9256 -0.1000
    34 H(1)   Bbb    -0.0011    -0.567    -0.202    -0.189  0.1165  0.0611  0.9913
              Bcc     0.0023     1.219     0.435     0.407  0.9237 -0.3735 -0.0855
 
              Baa    -0.0011    -0.607    -0.217    -0.202  0.4660  0.8160  0.3420
    35 H(1)   Bbb    -0.0010    -0.512    -0.183    -0.171 -0.2558 -0.2458  0.9350
              Bcc     0.0021     1.119     0.399     0.373  0.8470 -0.5232  0.0942
 
              Baa    -0.0012    -0.626    -0.223    -0.209  0.6662  0.4835 -0.5679
    36 H(1)   Bbb    -0.0010    -0.551    -0.197    -0.184  0.4205  0.3854  0.8214
              Bcc     0.0022     1.177     0.420     0.393 -0.6160  0.7860 -0.0534
 
              Baa    -0.0013    -0.701    -0.250    -0.234  0.7967 -0.3665  0.4805
    37 H(1)   Bbb    -0.0012    -0.644    -0.230    -0.215 -0.3335  0.3963  0.8554
              Bcc     0.0025     1.345     0.480     0.449  0.5039  0.8418 -0.1935
 
              Baa    -0.0013    -0.690    -0.246    -0.230  0.4557  0.1300  0.8806
    38 H(1)   Bbb    -0.0012    -0.659    -0.235    -0.220  0.6324  0.6489 -0.4231
              Bcc     0.0025     1.349     0.481     0.450 -0.6264  0.7497  0.2135
 
              Baa    -0.0011    -0.609    -0.217    -0.203 -0.4573  0.8064  0.3749
    39 H(1)   Bbb    -0.0010    -0.521    -0.186    -0.174  0.2711 -0.2752  0.9224
              Bcc     0.0021     1.130     0.403     0.377  0.8470  0.5234 -0.0928
 
              Baa    -0.0018    -0.947    -0.338    -0.316 -0.3326  0.8975  0.2897
    40 H(1)   Bbb    -0.0016    -0.838    -0.299    -0.280  0.3215 -0.1809  0.9295
              Bcc     0.0033     1.785     0.637     0.596  0.8866  0.4023 -0.2283
 
              Baa    -0.0012    -0.651    -0.232    -0.217 -0.3649  0.9231 -0.1216
    41 H(1)   Bbb    -0.0011    -0.565    -0.202    -0.188 -0.1158  0.0846  0.9897
              Bcc     0.0023     1.216     0.434     0.405  0.9238  0.3752  0.0761
 
              Baa    -0.0014    -0.726    -0.259    -0.242 -0.4220  0.0992  0.9011
    42 H(1)   Bbb    -0.0012    -0.656    -0.234    -0.219 -0.6529  0.6563 -0.3780
              Bcc     0.0026     1.382     0.493     0.461  0.6290  0.7479  0.2122
 
              Baa    -0.0011    -0.612    -0.218    -0.204  0.6526 -0.4691  0.5950
    43 H(1)   Bbb    -0.0010    -0.543    -0.194    -0.181 -0.4403  0.4042  0.8017
              Bcc     0.0022     1.156     0.412     0.386  0.6166  0.7852 -0.0573
 
              Baa    -0.0011    -0.614    -0.219    -0.205  0.8509 -0.4392 -0.2883
    44 H(1)   Bbb    -0.0010    -0.516    -0.184    -0.172  0.2136 -0.2121  0.9536
              Bcc     0.0021     1.129     0.403     0.377  0.4800  0.8730  0.0866
 
              Baa    -0.0011    -0.612    -0.218    -0.204  0.8314  0.4325  0.3488
    45 H(1)   Bbb    -0.0010    -0.520    -0.186    -0.174 -0.2683 -0.2372  0.9337
              Bcc     0.0021     1.132     0.404     0.378 -0.4866  0.8699  0.0811
 
              Baa    -0.0012    -0.646    -0.230    -0.215 -0.4296  0.7796 -0.4558
    46 H(1)   Bbb    -0.0011    -0.600    -0.214    -0.200 -0.3777  0.3033  0.8748
              Bcc     0.0023     1.246     0.445     0.416  0.8202  0.5479  0.1642
 
              Baa    -0.0013    -0.695    -0.248    -0.232  0.7856  0.3555 -0.5064
    47 H(1)   Bbb    -0.0012    -0.628    -0.224    -0.210  0.3588  0.4051  0.8410
              Bcc     0.0025     1.323     0.472     0.441 -0.5041  0.8424 -0.1907
 
              Baa    -0.0012    -0.649    -0.232    -0.216  0.3635  0.7176 -0.5941
    48 H(1)   Bbb    -0.0011    -0.607    -0.217    -0.203  0.4450  0.4265  0.7874
              Bcc     0.0024     1.256     0.448     0.419  0.8184 -0.5506 -0.1644
 
              Baa    -0.1099     7.951     2.837     2.652  0.1825  0.9798  0.0813
    49 O(17)  Bbb    -0.1058     7.655     2.732     2.553  0.9407 -0.1500 -0.3044
              Bcc     0.2157   -15.606    -5.568    -5.205  0.2860 -0.1320  0.9491
 
              Baa    -0.0125    -6.652    -2.374    -2.219  0.7419 -0.6561 -0.1381
    50 H(1)   Bbb    -0.0058    -3.078    -1.098    -1.027  0.6100  0.5749  0.5453
              Bcc     0.0182     9.730     3.472     3.246 -0.2784 -0.4888  0.8268
 
              Baa    -0.0125    -6.657    -2.375    -2.221  0.9510  0.3019 -0.0669
    51 H(1)   Bbb    -0.0058    -3.096    -1.105    -1.033 -0.2996  0.8456 -0.4419
              Bcc     0.0183     9.753     3.480     3.253 -0.0769  0.4403  0.8946
 

 ---------------------------------------------------------------------------------

 CPIOFr:  IOpCl= 1 IRwI=-1 IRwCP=  731 ICalc=  4 LCPTot=      939367 Len1MO=     3073640 IndFrg=    16307567
 CPIOFr:  IOpCl= 1 IRwI=-2 IRwCP=  731 ICalc=  0 LCPTot=      939367 Len1MO=     3073640 IndFrg=     4013007
 Counterpoise corrected energy =   -2491.761731797576
                   BSSE energy =       0.003659709931
               sum of monomers =   -2491.757353940163
           complexation energy =      -5.04 kcal/mole (raw)
           complexation energy =      -2.75 kcal/mole (corrected)
 1\1\GINC-NID01839\SP\UTPSSTPSS\6-311++G(d,p)\C19H25Co1N4O2(1+,2)\SHOST
 Y\02-Nov-2015\0\\# tpsstpss/6-311++G(d,p) integral=ultrafine scf=tight
  counterpoise=2\\H2O.Co.2.Corrin.H2O\\1,2\O,0,-0.182428,0.206267,-2.30
 6619\H,0,0.065529,-0.609522,-2.7851\H,0,0.392992,0.903937,-2.678368\Co
 ,0,-0.030963,0.,-0.000001\N,0,-1.326193,-1.415207,-0.035824\C,0,-1.039
 803,-2.773733,0.034673\C,0,-2.311344,-3.593028,0.168131\C,0,-3.426992,
 -2.556575,-0.064304\C,0,-2.679085,-1.238636,-0.027661\C,0,0.224801,-3.
 32397,0.015984\C,0,1.405957,-2.546253,-0.096571\N,0,1.366297,-1.22372,
 -0.145445\C,0,2.730415,-0.666532,-0.372121\C,0,3.671073,-1.802138,0.07
 2943\C,0,2.827634,-3.070936,-0.211231\C,0,2.730417,0.666519,0.372125\N
 ,0,1.366303,1.223714,0.145445\C,0,1.405968,2.546247,0.096574\C,0,2.827
 647,3.070923,0.21124\C,0,3.671081,1.802121,-0.072935\C,0,-3.314357,0.0
 00007,0.000004\C,0,-2.679079,1.238647,0.027666\N,0,-1.326186,1.415212,
 0.035822\C,0,-1.03979,2.773737,-0.03468\C,0,-2.311328,3.593034,-0.1681
 49\C,0,-3.426978,2.556591,0.064317\C,0,0.224816,3.323969,-0.015986\H,0
 ,2.843799,-0.465782,-1.452107\H,0,2.843797,0.465768,1.452112\H,0,-4.40
 2474,0.00001,0.000008\H,0,0.317579,4.405354,-0.083599\H,0,0.317559,-4.
 405356,0.083595\H,0,3.870695,1.718408,-1.150872\H,0,4.630925,1.794981,
 0.454413\H,0,-4.22119,-2.593578,0.691038\H,0,3.027942,3.895313,-0.4841
 56\H,0,-2.368654,4.027642,-1.17642\H,0,3.005459,3.4557,1.228105\H,0,-4
 .221194,2.593596,-0.691005\H,0,3.870685,-1.718423,1.15088\H,0,4.630918
 ,-1.795003,-0.454403\H,0,3.005447,-3.455718,-1.228094\H,0,3.027923,-3.
 895325,0.484167\H,0,-2.332577,4.426171,0.544365\H,0,-2.3326,-4.426145,
 -0.544407\H,0,-3.907606,2.685628,1.045314\H,0,-2.368666,-4.027664,1.17
 6388\H,0,-3.907647,-2.685602,-1.045288\O,0,-0.182445,-0.206261,2.30660
 9\H,0,0.392972,-0.903928,2.67837\H,0,0.065503,0.609532,2.785088\\Versi
 on=AS64L-G09RevD.01\State=2-A\HF=-2415.2984606\S2=0.759357\S2-1=0.\S2A
 =0.750068\RMSD=2.164e-09\Dipole=0.7070525,-0.0077191,-0.069624\Quadrup
 ole=6.8417609,6.3913406,-13.2331015,0.0146789,-0.243525,0.3975192\PG=C
 01 [X(C19H25Co1N4O2)]\\@


 IF MATHEMATICALLY YOU END UP WITH THE INCORRECT ANSWER,
 TRY MULTIPLYING BY THE PAGE NUMBER.
 Job cpu time:       0 days  0 hours  6 minutes 51.0 seconds.
 File lengths (MBytes):  RWF=    743 Int=      0 D2E=      0 Chk=    171 Scr=      1
 Normal termination of Gaussian 09 at Mon Nov  2 21:08:11 2015.
