 Entering GApplication 60295217 resources: utime ~102179s, stime ~2516s, Rss ~1024104, inblocks ~43529388, outblocks ~13220384
t.com
 Output=/global/homes/p/parksjm/tpss/H2O.Co.2.Corrin.H2O/H2O.Co.2.Corrin.H2O.tpss.631gs.opt.log
 Initial command:
 /usr/common/usg/g09/d1/g09/l1.exe "/scratch/scratchdirs/parksjm/g09/13504196.hopque01/Gau-32176.inp" -scrdir="/scratch/scratchdirs/parksjm/g09/13504196.hopque01/"
 Entering Link 1 = /usr/common/usg/g09/d1/g09/l1.exe PID=     32177.
  
 Copyright (c) 1988,1990,1992,1993,1995,1998,2003,2009,2013,
            Gaussian, Inc.  All Rights Reserved.
  
 This is part of the Gaussian(R) 09 program.  It is based on
 the Gaussian(R) 03 system (copyright 2003, Gaussian, Inc.),
 the Gaussian(R) 98 system (copyright 1998, Gaussian, Inc.),
 the Gaussian(R) 94 system (copyright 1995, Gaussian, Inc.),
 the Gaussian 92(TM) system (copyright 1992, Gaussian, Inc.),
 the Gaussian 90(TM) system (copyright 1990, Gaussian, Inc.),
 the Gaussian 88(TM) system (copyright 1988, Gaussian, Inc.),
 the Gaussian 86(TM) system (copyright 1986, Carnegie Mellon
 University), and the Gaussian 82(TM) system (copyright 1983,
 Carnegie Mellon University). Gaussian is a federally registered
 trademark of Gaussian, Inc.
  
 This software contains proprietary and confidential information,
 including trade secrets, belonging to Gaussian, Inc.
  
 This software is provided under written license and may be
 used, copied, transmitted, or stored only in accord with that
 written license.
  
 The following legend is applicable only to US Government
 contracts under FAR:
  
                    RESTRICTED RIGHTS LEGEND
  
 Use, reproduction and disclosure by the US Government is
 subject to restrictions as set forth in subparagraphs (a)
 and (c) of the Commercial Computer Software - Restricted
 Rights clause in FAR 52.227-19.
  
 Gaussian, Inc.
 340 Quinnipiac St., Bldg. 40, Wallingford CT 06492
  
  
 ---------------------------------------------------------------
 Warning -- This program may not be used in any manner that
 competes with the business of Gaussian, Inc. or will provide
 assistance to any competitor of Gaussian, Inc.  The licensee
 of this program is prohibited from giving any competitor of
 Gaussian, Inc. access to this program.  By using this program,
 the user acknowledges that Gaussian, Inc. is engaged in the
 business of creating and licensing software in the field of
 computational chemistry and represents and warrants to the
 licensee that it is not a competitor of Gaussian, Inc. and that
 it will not use this program in any manner prohibited above.
 ---------------------------------------------------------------
  

 Cite this work as:
 Gaussian 09, Revision D.01,
 M. J. Frisch, G. W. Trucks, H. B. Schlegel, G. E. Scuseria, 
 M. A. Robb, J. R. Cheeseman, G. Scalmani, V. Barone, B. Mennucci, 
 G. A. Petersson, H. Nakatsuji, M. Caricato, X. Li, H. P. Hratchian, 
 A. F. Izmaylov, J. Bloino, G. Zheng, J. L. Sonnenberg, M. Hada, 
 M. Ehara, K. Toyota, R. Fukuda, J. Hasegawa, M. Ishida, T. Nakajima, 
 Y. Honda, O. Kitao, H. Nakai, T. Vreven, J. A. Montgomery, Jr., 
 J. E. Peralta, F. Ogliaro, M. Bearpark, J. J. Heyd, E. Brothers, 
 K. N. Kudin, V. N. Staroverov, T. Keith, R. Kobayashi, J. Normand, 
 K. Raghavachari, A. Rendell, J. C. Burant, S. S. Iyengar, J. Tomasi, 
 M. Cossi, N. Rega, J. M. Millam, M. Klene, J. E. Knox, J. B. Cross, 
 V. Bakken, C. Adamo, J. Jaramillo, R. Gomperts, R. E. Stratmann, 
 O. Yazyev, A. J. Austin, R. Cammi, C. Pomelli, J. W. Ochterski, 
 R. L. Martin, K. Morokuma, V. G. Zakrzewski, G. A. Voth, 
 P. Salvador, J. J. Dannenberg, S. Dapprich, A. D. Daniels, 
 O. Farkas, J. B. Foresman, J. V. Ortiz, J. Cioslowski, 
 and D. J. Fox, Gaussian, Inc., Wallingford CT, 2013.
 
 ******************************************
 Gaussian 09:  AS64L-G09RevD.01 24-Apr-2013
                28-Oct-2015 
 ******************************************
 %nproc=24
 Will use up to   24 processors via shared memory.
 %chk=H2O.Co.2.Corrin.H2O.chk
 %mem=7000mb
 ----------------------------------------------------
 # tpsstpss/6-31G(d) opt integral=ultrafine scf=tight
 ----------------------------------------------------
 1/14=-1,18=20,19=15,26=4,38=1/1,3;
 2/9=110,12=2,17=6,18=5,40=1/2;
 3/5=1,6=6,7=1,11=2,16=1,25=1,30=1,71=1,74=2523,75=-5/1,2,3;
 4//1;
 5/5=2,32=2,38=5/2;
 6/7=2,8=2,9=2,10=2,28=1/1;
 7//1,2,3,16;
 1/14=-1,18=20,19=15,26=4/3(2);
 2/9=110/2;
 99//99;
 2/9=110/2;
 3/5=1,6=6,7=1,11=2,16=1,25=1,30=1,71=1,74=2523,75=-5/1,2,3;
 4/5=5,16=3,69=1/1;
 5/5=2,32=2,38=5/2;
 7//1,2,3,16;
 1/14=-1,18=20,19=15,26=4/3(-5);
 2/9=110/2;
 6/7=2,8=2,9=2,10=2,19=2,28=1/1;
 99/9=1/99;
 -------------------
 H2O.Co.2.Corrin.H2O
 -------------------
 Symbolic Z-matrix:
 Charge =  1 Multiplicity = 2
 O                    -0.16804   0.1841   -2.31822 
 H                     0.1111   -0.65376  -2.74342 
 H                     0.45551   0.85987  -2.65816 
 Co                   -0.03192   0.00001   0.00006 
 N                    -1.3293   -1.41783  -0.03202 
 C                    -1.0434   -2.77829   0.03202 
 C                    -2.31478  -3.60188   0.14771 
 C                    -3.43593  -2.55792  -0.02572 
 C                    -2.68478  -1.24039  -0.01577 
 C                     0.22404  -3.3306    0.01441 
 C                     1.40486  -2.55056  -0.09356 
 N                     1.36519  -1.22411  -0.14462 
 C                     2.72993  -0.66905  -0.36807 
 C                     3.67223  -1.80353   0.07928 
 C                     2.82834  -3.07414  -0.20157 
 C                     2.72995   0.66901   0.36804 
 N                     1.36522   1.2241    0.1446 
 C                     1.4049    2.55055   0.09356 
 C                     2.82839   3.0741    0.20155 
 C                     3.67226   1.80348  -0.07932 
 C                    -3.32193   0.00004   0.00003 
 C                    -2.68477   1.24045   0.01582 
 N                    -1.32928   1.41786   0.03206 
 C                    -1.04335   2.77831  -0.03207 
 C                    -2.31471   3.60189  -0.14797 
 C                    -3.43586   2.558     0.02585 
 C                     0.2241    3.3306   -0.01443 
 H                     2.85057  -0.46912  -1.45568 
 H                     2.85059   0.46908   1.45565 
 H                    -4.41642   0.00004   0.00004 
 H                     0.31772   4.41851  -0.07716 
 H                     0.31764  -4.41851   0.07709 
 H                     3.87497   1.71566  -1.16325 
 H                     4.63902   1.79649   0.44865 
 H                    -4.196    -2.59495   0.77363 
 H                     3.02772   3.90251  -0.49971 
 H                    -2.3583    4.09224  -1.13809 
 H                     3.01093   3.46866   1.22123 
 H                    -4.19619   2.59501  -0.77326 
 H                     3.87495  -1.71571   1.16322 
 H                     4.63898  -1.79657  -0.4487 
 H                     3.01086  -3.46871  -1.22125 
 H                     3.02765  -3.90254   0.4997 
 H                    -2.34423   4.40645   0.60658 
 H                    -2.34433  -4.40614  -0.60715 
 H                    -3.97554   2.68036   0.98385 
 H                    -2.35833  -4.09261   1.13763 
 H                    -3.97592  -2.68018  -0.98356 
 O                    -0.16793  -0.18423   2.31824 
 H                     0.45612  -0.85955   2.65816 
 H                     0.11056   0.65382   2.74351 
 
 Add virtual bond connecting atoms O49        and Co4        Dist= 4.40D+00.
 Add virtual bond connecting atoms Co4        and O1         Dist= 4.40D+00.

 GradGradGradGradGradGradGradGradGradGradGradGradGradGradGradGradGradGrad
 Berny optimization.
 Initialization pass.
                           ----------------------------
                           !    Initial Parameters    !
                           ! (Angstroms and Degrees)  !
 --------------------------                            --------------------------
 ! Name  Definition              Value          Derivative Info.                !
 --------------------------------------------------------------------------------
 ! R1    R(1,2)                  0.9802         estimate D2E/DX2                !
 ! R2    R(1,3)                  0.9803         estimate D2E/DX2                !
 ! R3    R(1,4)                  2.3296         estimate D2E/DX2                !
 ! R4    R(4,5)                  1.9221         estimate D2E/DX2                !
 ! R5    R(4,12)                 1.8631         estimate D2E/DX2                !
 ! R6    R(4,17)                 1.8631         estimate D2E/DX2                !
 ! R7    R(4,23)                 1.9221         estimate D2E/DX2                !
 ! R8    R(4,49)                 2.3295         estimate D2E/DX2                !
 ! R9    R(5,6)                  1.3916         estimate D2E/DX2                !
 ! R10   R(5,9)                  1.3671         estimate D2E/DX2                !
 ! R11   R(6,7)                  1.5192         estimate D2E/DX2                !
 ! R12   R(6,10)                 1.3827         estimate D2E/DX2                !
 ! R13   R(7,8)                  1.5417         estimate D2E/DX2                !
 ! R14   R(7,45)                 1.1034         estimate D2E/DX2                !
 ! R15   R(7,47)                 1.1057         estimate D2E/DX2                !
 ! R16   R(8,9)                  1.5166         estimate D2E/DX2                !
 ! R17   R(8,35)                 1.1036         estimate D2E/DX2                !
 ! R18   R(8,48)                 1.1063         estimate D2E/DX2                !
 ! R19   R(9,21)                 1.3946         estimate D2E/DX2                !
 ! R20   R(10,11)                1.4193         estimate D2E/DX2                !
 ! R21   R(10,32)                1.0937         estimate D2E/DX2                !
 ! R22   R(11,12)                1.328          estimate D2E/DX2                !
 ! R23   R(11,15)                1.5206         estimate D2E/DX2                !
 ! R24   R(12,13)                1.4901         estimate D2E/DX2                !
 ! R25   R(13,14)                1.5411         estimate D2E/DX2                !
 ! R26   R(13,16)                1.5272         estimate D2E/DX2                !
 ! R27   R(13,28)                1.1124         estimate D2E/DX2                !
 ! R28   R(14,15)                1.551          estimate D2E/DX2                !
 ! R29   R(14,40)                1.1062         estimate D2E/DX2                !
 ! R30   R(14,41)                1.1016         estimate D2E/DX2                !
 ! R31   R(15,42)                1.1085         estimate D2E/DX2                !
 ! R32   R(15,43)                1.1035         estimate D2E/DX2                !
 ! R33   R(16,17)                1.4901         estimate D2E/DX2                !
 ! R34   R(16,20)                1.5411         estimate D2E/DX2                !
 ! R35   R(16,29)                1.1124         estimate D2E/DX2                !
 ! R36   R(17,18)                1.328          estimate D2E/DX2                !
 ! R37   R(18,19)                1.5206         estimate D2E/DX2                !
 ! R38   R(18,27)                1.4193         estimate D2E/DX2                !
 ! R39   R(19,20)                1.551          estimate D2E/DX2                !
 ! R40   R(19,36)                1.1035         estimate D2E/DX2                !
 ! R41   R(19,38)                1.1085         estimate D2E/DX2                !
 ! R42   R(20,33)                1.1062         estimate D2E/DX2                !
 ! R43   R(20,34)                1.1016         estimate D2E/DX2                !
 ! R44   R(21,22)                1.3946         estimate D2E/DX2                !
 ! R45   R(21,30)                1.0945         estimate D2E/DX2                !
 ! R46   R(22,23)                1.3671         estimate D2E/DX2                !
 ! R47   R(22,26)                1.5166         estimate D2E/DX2                !
 ! R48   R(23,24)                1.3917         estimate D2E/DX2                !
 ! R49   R(24,25)                1.5192         estimate D2E/DX2                !
 ! R50   R(24,27)                1.3827         estimate D2E/DX2                !
 ! R51   R(25,26)                1.5417         estimate D2E/DX2                !
 ! R52   R(25,37)                1.1057         estimate D2E/DX2                !
 ! R53   R(25,44)                1.1034         estimate D2E/DX2                !
 ! R54   R(26,39)                1.1036         estimate D2E/DX2                !
 ! R55   R(26,46)                1.1063         estimate D2E/DX2                !
 ! R56   R(27,31)                1.0937         estimate D2E/DX2                !
 ! R57   R(49,50)                0.9803         estimate D2E/DX2                !
 ! R58   R(49,51)                0.9802         estimate D2E/DX2                !
 ! A1    A(2,1,3)              104.9322         estimate D2E/DX2                !
 ! A2    A(2,1,4)              110.335          estimate D2E/DX2                !
 ! A3    A(3,1,4)              111.2468         estimate D2E/DX2                !
 ! A4    A(1,4,5)               90.1283         estimate D2E/DX2                !
 ! A5    A(1,4,12)              91.058          estimate D2E/DX2                !
 ! A6    A(1,4,17)              93.9625         estimate D2E/DX2                !
 ! A7    A(1,4,23)              85.3443         estimate D2E/DX2                !
 ! A8    A(5,4,12)              91.1576         estimate D2E/DX2                !
 ! A9    A(5,4,23)              95.0955         estimate D2E/DX2                !
 ! A10   A(5,4,49)              85.3458         estimate D2E/DX2                !
 ! A11   A(12,4,17)             82.8408         estimate D2E/DX2                !
 ! A12   A(12,4,49)             93.9619         estimate D2E/DX2                !
 ! A13   A(17,4,23)             91.1583         estimate D2E/DX2                !
 ! A14   A(17,4,49)             91.0626         estimate D2E/DX2                !
 ! A15   A(23,4,49)             90.1355         estimate D2E/DX2                !
 ! A16   A(4,5,6)              125.5686         estimate D2E/DX2                !
 ! A17   A(4,5,9)              124.9799         estimate D2E/DX2                !
 ! A18   A(6,5,9)              109.2698         estimate D2E/DX2                !
 ! A19   A(5,6,7)              111.1948         estimate D2E/DX2                !
 ! A20   A(5,6,10)             125.3264         estimate D2E/DX2                !
 ! A21   A(7,6,10)             123.4725         estimate D2E/DX2                !
 ! A22   A(6,7,8)              103.4688         estimate D2E/DX2                !
 ! A23   A(6,7,45)             111.4353         estimate D2E/DX2                !
 ! A24   A(6,7,47)             109.9823         estimate D2E/DX2                !
 ! A25   A(8,7,45)             113.3985         estimate D2E/DX2                !
 ! A26   A(8,7,47)             111.875          estimate D2E/DX2                !
 ! A27   A(45,7,47)            106.7331         estimate D2E/DX2                !
 ! A28   A(7,8,9)              103.1405         estimate D2E/DX2                !
 ! A29   A(7,8,35)             113.3676         estimate D2E/DX2                !
 ! A30   A(7,8,48)             112.1793         estimate D2E/DX2                !
 ! A31   A(9,8,35)             111.4374         estimate D2E/DX2                !
 ! A32   A(9,8,48)             110.085          estimate D2E/DX2                !
 ! A33   A(35,8,48)            106.6906         estimate D2E/DX2                !
 ! A34   A(5,9,8)              112.2235         estimate D2E/DX2                !
 ! A35   A(5,9,21)             124.6489         estimate D2E/DX2                !
 ! A36   A(8,9,21)             123.1266         estimate D2E/DX2                !
 ! A37   A(6,10,11)            122.9609         estimate D2E/DX2                !
 ! A38   A(6,10,32)            118.362          estimate D2E/DX2                !
 ! A39   A(11,10,32)           118.6746         estimate D2E/DX2                !
 ! A40   A(10,11,12)           121.804          estimate D2E/DX2                !
 ! A41   A(10,11,15)           126.5133         estimate D2E/DX2                !
 ! A42   A(12,11,15)           111.6635         estimate D2E/DX2                !
 ! A43   A(4,12,11)            132.5045         estimate D2E/DX2                !
 ! A44   A(4,12,13)            116.9795         estimate D2E/DX2                !
 ! A45   A(11,12,13)           110.5154         estimate D2E/DX2                !
 ! A46   A(12,13,14)           104.019          estimate D2E/DX2                !
 ! A47   A(12,13,16)           104.7199         estimate D2E/DX2                !
 ! A48   A(12,13,28)           108.2327         estimate D2E/DX2                !
 ! A49   A(14,13,16)           120.3352         estimate D2E/DX2                !
 ! A50   A(14,13,28)           110.4755         estimate D2E/DX2                !
 ! A51   A(16,13,28)           108.288          estimate D2E/DX2                !
 ! A52   A(13,14,15)           102.5814         estimate D2E/DX2                !
 ! A53   A(13,14,40)           109.7573         estimate D2E/DX2                !
 ! A54   A(13,14,41)           113.1303         estimate D2E/DX2                !
 ! A55   A(15,14,40)           110.0101         estimate D2E/DX2                !
 ! A56   A(15,14,41)           113.3226         estimate D2E/DX2                !
 ! A57   A(40,14,41)           107.9575         estimate D2E/DX2                !
 ! A58   A(11,15,14)           102.3812         estimate D2E/DX2                !
 ! A59   A(11,15,42)           110.0021         estimate D2E/DX2                !
 ! A60   A(11,15,43)           112.4846         estimate D2E/DX2                !
 ! A61   A(14,15,42)           111.6287         estimate D2E/DX2                !
 ! A62   A(14,15,43)           113.6815         estimate D2E/DX2                !
 ! A63   A(42,15,43)           106.7154         estimate D2E/DX2                !
 ! A64   A(13,16,17)           104.7198         estimate D2E/DX2                !
 ! A65   A(13,16,20)           120.3353         estimate D2E/DX2                !
 ! A66   A(13,16,29)           108.2882         estimate D2E/DX2                !
 ! A67   A(17,16,20)           104.0188         estimate D2E/DX2                !
 ! A68   A(17,16,29)           108.2326         estimate D2E/DX2                !
 ! A69   A(20,16,29)           110.4753         estimate D2E/DX2                !
 ! A70   A(4,17,16)            116.9792         estimate D2E/DX2                !
 ! A71   A(4,17,18)            132.5047         estimate D2E/DX2                !
 ! A72   A(16,17,18)           110.5155         estimate D2E/DX2                !
 ! A73   A(17,18,19)           111.6634         estimate D2E/DX2                !
 ! A74   A(17,18,27)           121.804          estimate D2E/DX2                !
 ! A75   A(19,18,27)           126.5135         estimate D2E/DX2                !
 ! A76   A(18,19,20)           102.3813         estimate D2E/DX2                !
 ! A77   A(18,19,36)           112.4847         estimate D2E/DX2                !
 ! A78   A(18,19,38)           110.002          estimate D2E/DX2                !
 ! A79   A(20,19,36)           113.6815         estimate D2E/DX2                !
 ! A80   A(20,19,38)           111.6287         estimate D2E/DX2                !
 ! A81   A(36,19,38)           106.7153         estimate D2E/DX2                !
 ! A82   A(16,20,19)           102.5813         estimate D2E/DX2                !
 ! A83   A(16,20,33)           109.7571         estimate D2E/DX2                !
 ! A84   A(16,20,34)           113.1303         estimate D2E/DX2                !
 ! A85   A(19,20,33)           110.01           estimate D2E/DX2                !
 ! A86   A(19,20,34)           113.3227         estimate D2E/DX2                !
 ! A87   A(33,20,34)           107.9577         estimate D2E/DX2                !
 ! A88   A(9,21,22)            125.6285         estimate D2E/DX2                !
 ! A89   A(9,21,30)            117.1857         estimate D2E/DX2                !
 ! A90   A(22,21,30)           117.1858         estimate D2E/DX2                !
 ! A91   A(21,22,23)           124.6486         estimate D2E/DX2                !
 ! A92   A(21,22,26)           123.1277         estimate D2E/DX2                !
 ! A93   A(23,22,26)           112.2226         estimate D2E/DX2                !
 ! A94   A(4,23,22)            124.9804         estimate D2E/DX2                !
 ! A95   A(4,23,24)            125.5683         estimate D2E/DX2                !
 ! A96   A(22,23,24)           109.2697         estimate D2E/DX2                !
 ! A97   A(23,24,25)           111.194          estimate D2E/DX2                !
 ! A98   A(23,24,27)           125.3264         estimate D2E/DX2                !
 ! A99   A(25,24,27)           123.4732         estimate D2E/DX2                !
 ! A100  A(24,25,26)           103.4682         estimate D2E/DX2                !
 ! A101  A(24,25,37)           109.9803         estimate D2E/DX2                !
 ! A102  A(24,25,44)           111.4379         estimate D2E/DX2                !
 ! A103  A(26,25,37)           111.8729         estimate D2E/DX2                !
 ! A104  A(26,25,44)           113.4003         estimate D2E/DX2                !
 ! A105  A(37,25,44)           106.7334         estimate D2E/DX2                !
 ! A106  A(22,26,25)           103.1397         estimate D2E/DX2                !
 ! A107  A(22,26,39)           111.4399         estimate D2E/DX2                !
 ! A108  A(22,26,46)           110.0832         estimate D2E/DX2                !
 ! A109  A(25,26,39)           113.369          estimate D2E/DX2                !
 ! A110  A(25,26,46)           112.1775         estimate D2E/DX2                !
 ! A111  A(39,26,46)           106.691          estimate D2E/DX2                !
 ! A112  A(18,27,24)           122.9609         estimate D2E/DX2                !
 ! A113  A(18,27,31)           118.6746         estimate D2E/DX2                !
 ! A114  A(24,27,31)           118.3619         estimate D2E/DX2                !
 ! A115  A(4,49,50)            111.2468         estimate D2E/DX2                !
 ! A116  A(4,49,51)            110.3383         estimate D2E/DX2                !
 ! A117  A(50,49,51)           104.9324         estimate D2E/DX2                !
 ! A118  L(1,4,49,5,-1)        175.4741         estimate D2E/DX2                !
 ! A119  L(5,4,17,1,-1)        184.0908         estimate D2E/DX2                !
 ! A120  L(12,4,23,1,-1)       176.4023         estimate D2E/DX2                !
 ! A121  L(1,4,49,5,-2)        184.9422         estimate D2E/DX2                !
 ! A122  L(5,4,17,1,-2)        185.9436         estimate D2E/DX2                !
 ! A123  L(12,4,23,1,-2)       186.2621         estimate D2E/DX2                !
 ! D1    D(2,1,4,5)            -61.5749         estimate D2E/DX2                !
 ! D2    D(2,1,4,12)            29.5853         estimate D2E/DX2                !
 ! D3    D(2,1,4,17)           112.4815         estimate D2E/DX2                !
 ! D4    D(2,1,4,23)          -156.6768         estimate D2E/DX2                !
 ! D5    D(3,1,4,5)           -177.6112         estimate D2E/DX2                !
 ! D6    D(3,1,4,12)           -86.451          estimate D2E/DX2                !
 ! D7    D(3,1,4,17)            -3.5548         estimate D2E/DX2                !
 ! D8    D(3,1,4,23)            87.2869         estimate D2E/DX2                !
 ! D9    D(2,1,49,50)           26.1863         estimate D2E/DX2                !
 ! D10   D(2,1,49,51)          144.423          estimate D2E/DX2                !
 ! D11   D(3,1,49,50)          -92.0475         estimate D2E/DX2                !
 ! D12   D(3,1,49,51)           26.1892         estimate D2E/DX2                !
 ! D13   D(1,4,5,6)             99.4643         estimate D2E/DX2                !
 ! D14   D(1,4,5,9)            -85.9654         estimate D2E/DX2                !
 ! D15   D(12,4,5,6)             8.4035         estimate D2E/DX2                !
 ! D16   D(12,4,5,9)          -177.0262         estimate D2E/DX2                !
 ! D17   D(23,4,5,6)          -175.1985         estimate D2E/DX2                !
 ! D18   D(23,4,5,9)            -0.6281         estimate D2E/DX2                !
 ! D19   D(49,4,5,6)           -85.4779         estimate D2E/DX2                !
 ! D20   D(49,4,5,9)            89.0924         estimate D2E/DX2                !
 ! D21   D(6,5,17,16)           -3.4139         estimate D2E/DX2                !
 ! D22   D(6,5,17,18)          178.8838         estimate D2E/DX2                !
 ! D23   D(9,5,17,16)          168.7952         estimate D2E/DX2                !
 ! D24   D(9,5,17,18)           -8.9072         estimate D2E/DX2                !
 ! D25   D(1,4,12,11)          -98.3043         estimate D2E/DX2                !
 ! D26   D(1,4,12,13)           81.3816         estimate D2E/DX2                !
 ! D27   D(5,4,12,11)           -8.1545         estimate D2E/DX2                !
 ! D28   D(5,4,12,13)          171.5314         estimate D2E/DX2                !
 ! D29   D(17,4,12,11)         167.8346         estimate D2E/DX2                !
 ! D30   D(17,4,12,13)         -12.4795         estimate D2E/DX2                !
 ! D31   D(49,4,12,11)          77.2595         estimate D2E/DX2                !
 ! D32   D(49,4,12,13)        -103.0546         estimate D2E/DX2                !
 ! D33   D(11,12,23,22)         -8.909          estimate D2E/DX2                !
 ! D34   D(11,12,23,24)        178.8864         estimate D2E/DX2                !
 ! D35   D(13,12,23,22)        168.7952         estimate D2E/DX2                !
 ! D36   D(13,12,23,24)         -3.4093         estimate D2E/DX2                !
 ! D37   D(1,4,17,16)         -103.0553         estimate D2E/DX2                !
 ! D38   D(1,4,17,18)           77.2654         estimate D2E/DX2                !
 ! D39   D(12,4,17,16)         -12.4849         estimate D2E/DX2                !
 ! D40   D(12,4,17,18)         167.8358         estimate D2E/DX2                !
 ! D41   D(23,4,17,16)         171.5321         estimate D2E/DX2                !
 ! D42   D(23,4,17,18)          -8.1472         estimate D2E/DX2                !
 ! D43   D(49,4,17,16)          81.3751         estimate D2E/DX2                !
 ! D44   D(49,4,17,18)         -98.3042         estimate D2E/DX2                !
 ! D45   D(1,4,23,22)           89.0901         estimate D2E/DX2                !
 ! D46   D(1,4,23,24)          -85.4802         estimate D2E/DX2                !
 ! D47   D(5,4,23,22)           -0.6231         estimate D2E/DX2                !
 ! D48   D(5,4,23,24)         -175.1934         estimate D2E/DX2                !
 ! D49   D(17,4,23,22)        -177.028          estimate D2E/DX2                !
 ! D50   D(17,4,23,24)           8.4017         estimate D2E/DX2                !
 ! D51   D(49,4,23,22)         -85.9625         estimate D2E/DX2                !
 ! D52   D(49,4,23,24)          99.4673         estimate D2E/DX2                !
 ! D53   D(5,4,49,50)           87.3297         estimate D2E/DX2                !
 ! D54   D(5,4,49,51)         -156.6318         estimate D2E/DX2                !
 ! D55   D(12,4,49,50)          -3.5114         estimate D2E/DX2                !
 ! D56   D(12,4,49,51)         112.5271         estimate D2E/DX2                !
 ! D57   D(17,4,49,50)         -86.408          estimate D2E/DX2                !
 ! D58   D(17,4,49,51)          29.6306         estimate D2E/DX2                !
 ! D59   D(23,4,49,50)        -177.569          estimate D2E/DX2                !
 ! D60   D(23,4,49,51)         -61.5304         estimate D2E/DX2                !
 ! D61   D(4,5,6,7)            173.2705         estimate D2E/DX2                !
 ! D62   D(4,5,6,10)            -5.8329         estimate D2E/DX2                !
 ! D63   D(9,5,6,7)             -2.0184         estimate D2E/DX2                !
 ! D64   D(9,5,6,10)           178.8782         estimate D2E/DX2                !
 ! D65   D(4,5,9,8)           -179.0403         estimate D2E/DX2                !
 ! D66   D(4,5,9,21)             1.3256         estimate D2E/DX2                !
 ! D67   D(6,5,9,8)             -3.7172         estimate D2E/DX2                !
 ! D68   D(6,5,9,21)           176.6487         estimate D2E/DX2                !
 ! D69   D(5,6,7,8)              6.5788         estimate D2E/DX2                !
 ! D70   D(5,6,7,45)           128.7689         estimate D2E/DX2                !
 ! D71   D(5,6,7,47)          -113.0746         estimate D2E/DX2                !
 ! D72   D(10,6,7,8)          -174.2982         estimate D2E/DX2                !
 ! D73   D(10,6,7,45)          -52.1081         estimate D2E/DX2                !
 ! D74   D(10,6,7,47)           66.0485         estimate D2E/DX2                !
 ! D75   D(5,6,10,11)           -0.9756         estimate D2E/DX2                !
 ! D76   D(5,6,10,32)          179.623          estimate D2E/DX2                !
 ! D77   D(7,6,10,11)         -179.9734         estimate D2E/DX2                !
 ! D78   D(7,6,10,32)            0.6251         estimate D2E/DX2                !
 ! D79   D(6,7,8,9)             -7.9832         estimate D2E/DX2                !
 ! D80   D(6,7,8,35)          -128.6278         estimate D2E/DX2                !
 ! D81   D(6,7,8,48)           110.4412         estimate D2E/DX2                !
 ! D82   D(45,7,8,9)          -128.8532         estimate D2E/DX2                !
 ! D83   D(45,7,8,35)          110.5021         estimate D2E/DX2                !
 ! D84   D(45,7,8,48)          -10.4289         estimate D2E/DX2                !
 ! D85   D(47,7,8,9)           110.3643         estimate D2E/DX2                !
 ! D86   D(47,7,8,35)          -10.2804         estimate D2E/DX2                !
 ! D87   D(47,7,8,48)         -131.2114         estimate D2E/DX2                !
 ! D88   D(7,8,9,5)              7.6112         estimate D2E/DX2                !
 ! D89   D(7,8,9,21)          -172.7482         estimate D2E/DX2                !
 ! D90   D(35,8,9,5)           129.5646         estimate D2E/DX2                !
 ! D91   D(35,8,9,21)          -50.7947         estimate D2E/DX2                !
 ! D92   D(48,8,9,5)          -112.2646         estimate D2E/DX2                !
 ! D93   D(48,8,9,21)           67.3761         estimate D2E/DX2                !
 ! D94   D(5,9,21,22)           -0.7124         estimate D2E/DX2                !
 ! D95   D(5,9,21,30)          179.2879         estimate D2E/DX2                !
 ! D96   D(8,9,21,22)          179.692          estimate D2E/DX2                !
 ! D97   D(8,9,21,30)           -0.3077         estimate D2E/DX2                !
 ! D98   D(6,10,11,12)           2.0742         estimate D2E/DX2                !
 ! D99   D(6,10,11,15)        -176.1947         estimate D2E/DX2                !
 ! D100  D(32,10,11,12)       -178.5262         estimate D2E/DX2                !
 ! D101  D(32,10,11,15)          3.205          estimate D2E/DX2                !
 ! D102  D(10,11,12,4)           4.3181         estimate D2E/DX2                !
 ! D103  D(10,11,12,13)       -175.383          estimate D2E/DX2                !
 ! D104  D(15,11,12,4)        -177.1789         estimate D2E/DX2                !
 ! D105  D(15,11,12,13)          3.12           estimate D2E/DX2                !
 ! D106  D(10,11,15,14)       -165.9585         estimate D2E/DX2                !
 ! D107  D(10,11,15,42)         75.2582         estimate D2E/DX2                !
 ! D108  D(10,11,15,43)        -43.5531         estimate D2E/DX2                !
 ! D109  D(12,11,15,14)         15.6244         estimate D2E/DX2                !
 ! D110  D(12,11,15,42)       -103.1589         estimate D2E/DX2                !
 ! D111  D(12,11,15,43)        138.0299         estimate D2E/DX2                !
 ! D112  D(4,12,13,14)         159.4685         estimate D2E/DX2                !
 ! D113  D(4,12,13,16)          32.3244         estimate D2E/DX2                !
 ! D114  D(4,12,13,28)         -83.0248         estimate D2E/DX2                !
 ! D115  D(11,12,13,14)        -20.7787         estimate D2E/DX2                !
 ! D116  D(11,12,13,16)       -147.9228         estimate D2E/DX2                !
 ! D117  D(11,12,13,28)         96.728          estimate D2E/DX2                !
 ! D118  D(12,13,14,15)         28.8882         estimate D2E/DX2                !
 ! D119  D(12,13,14,40)        -88.0288         estimate D2E/DX2                !
 ! D120  D(12,13,14,41)        151.3301         estimate D2E/DX2                !
 ! D121  D(16,13,14,15)        145.6027         estimate D2E/DX2                !
 ! D122  D(16,13,14,40)         28.6857         estimate D2E/DX2                !
 ! D123  D(16,13,14,41)        -91.9554         estimate D2E/DX2                !
 ! D124  D(28,13,14,15)        -87.0537         estimate D2E/DX2                !
 ! D125  D(28,13,14,40)        156.0293         estimate D2E/DX2                !
 ! D126  D(28,13,14,41)         35.3881         estimate D2E/DX2                !
 ! D127  D(12,13,16,17)        -37.5047         estimate D2E/DX2                !
 ! D128  D(12,13,16,20)       -153.8595         estimate D2E/DX2                !
 ! D129  D(12,13,16,29)         77.806          estimate D2E/DX2                !
 ! D130  D(14,13,16,17)       -153.8596         estimate D2E/DX2                !
 ! D131  D(14,13,16,20)         89.7856         estimate D2E/DX2                !
 ! D132  D(14,13,16,29)        -38.5489         estimate D2E/DX2                !
 ! D133  D(28,13,16,17)         77.806          estimate D2E/DX2                !
 ! D134  D(28,13,16,20)        -38.5488         estimate D2E/DX2                !
 ! D135  D(28,13,16,29)       -166.8833         estimate D2E/DX2                !
 ! D136  D(13,14,15,11)        -26.6578         estimate D2E/DX2                !
 ! D137  D(13,14,15,42)         90.9725         estimate D2E/DX2                !
 ! D138  D(13,14,15,43)       -148.2467         estimate D2E/DX2                !
 ! D139  D(40,14,15,11)         90.0784         estimate D2E/DX2                !
 ! D140  D(40,14,15,42)       -152.2913         estimate D2E/DX2                !
 ! D141  D(40,14,15,43)        -31.5106         estimate D2E/DX2                !
 ! D142  D(41,14,15,11)       -148.9695         estimate D2E/DX2                !
 ! D143  D(41,14,15,42)        -31.3392         estimate D2E/DX2                !
 ! D144  D(41,14,15,43)         89.4415         estimate D2E/DX2                !
 ! D145  D(13,16,17,4)          32.3288         estimate D2E/DX2                !
 ! D146  D(13,16,17,18)       -147.9236         estimate D2E/DX2                !
 ! D147  D(20,16,17,4)         159.473          estimate D2E/DX2                !
 ! D148  D(20,16,17,18)        -20.7795         estimate D2E/DX2                !
 ! D149  D(29,16,17,4)         -83.0206         estimate D2E/DX2                !
 ! D150  D(29,16,17,18)         96.7269         estimate D2E/DX2                !
 ! D151  D(13,16,20,19)        145.603          estimate D2E/DX2                !
 ! D152  D(13,16,20,33)         28.6862         estimate D2E/DX2                !
 ! D153  D(13,16,20,34)        -91.9551         estimate D2E/DX2                !
 ! D154  D(17,16,20,19)         28.8886         estimate D2E/DX2                !
 ! D155  D(17,16,20,33)        -88.0282         estimate D2E/DX2                !
 ! D156  D(17,16,20,34)        151.3305         estimate D2E/DX2                !
 ! D157  D(29,16,20,19)        -87.0531         estimate D2E/DX2                !
 ! D158  D(29,16,20,33)        156.0302         estimate D2E/DX2                !
 ! D159  D(29,16,20,34)         35.3888         estimate D2E/DX2                !
 ! D160  D(4,17,18,19)        -177.1844         estimate D2E/DX2                !
 ! D161  D(4,17,18,27)           4.3104         estimate D2E/DX2                !
 ! D162  D(16,17,18,19)          3.1207         estimate D2E/DX2                !
 ! D163  D(16,17,18,27)       -175.3844         estimate D2E/DX2                !
 ! D164  D(17,18,19,20)         15.624          estimate D2E/DX2                !
 ! D165  D(17,18,19,36)        138.0295         estimate D2E/DX2                !
 ! D166  D(17,18,19,38)       -103.1593         estimate D2E/DX2                !
 ! D167  D(27,18,19,20)       -165.9567         estimate D2E/DX2                !
 ! D168  D(27,18,19,36)        -43.5512         estimate D2E/DX2                !
 ! D169  D(27,18,19,38)         75.26           estimate D2E/DX2                !
 ! D170  D(17,18,27,24)          2.0746         estimate D2E/DX2                !
 ! D171  D(17,18,27,31)       -178.5225         estimate D2E/DX2                !
 ! D172  D(19,18,27,24)       -176.1968         estimate D2E/DX2                !
 ! D173  D(19,18,27,31)          3.2062         estimate D2E/DX2                !
 ! D174  D(18,19,20,16)        -26.6578         estimate D2E/DX2                !
 ! D175  D(18,19,20,33)         90.0781         estimate D2E/DX2                !
 ! D176  D(18,19,20,34)       -148.9695         estimate D2E/DX2                !
 ! D177  D(36,19,20,16)       -148.247          estimate D2E/DX2                !
 ! D178  D(36,19,20,33)        -31.5111         estimate D2E/DX2                !
 ! D179  D(36,19,20,34)         89.4413         estimate D2E/DX2                !
 ! D180  D(38,19,20,16)         90.9724         estimate D2E/DX2                !
 ! D181  D(38,19,20,33)       -152.2917         estimate D2E/DX2                !
 ! D182  D(38,19,20,34)        -31.3393         estimate D2E/DX2                !
 ! D183  D(9,21,22,23)          -0.7123         estimate D2E/DX2                !
 ! D184  D(9,21,22,26)         179.6954         estimate D2E/DX2                !
 ! D185  D(30,21,22,23)        179.2874         estimate D2E/DX2                !
 ! D186  D(30,21,22,26)         -0.305          estimate D2E/DX2                !
 ! D187  D(21,22,23,4)           1.3221         estimate D2E/DX2                !
 ! D188  D(21,22,23,24)        176.6451         estimate D2E/DX2                !
 ! D189  D(26,22,23,4)        -179.0467         estimate D2E/DX2                !
 ! D190  D(26,22,23,24)         -3.7237         estimate D2E/DX2                !
 ! D191  D(21,22,26,25)       -172.7349         estimate D2E/DX2                !
 ! D192  D(21,22,26,39)        -50.779          estimate D2E/DX2                !
 ! D193  D(21,22,26,46)         67.3927         estimate D2E/DX2                !
 ! D194  D(23,22,26,25)          7.6273         estimate D2E/DX2                !
 ! D195  D(23,22,26,39)        129.5833         estimate D2E/DX2                !
 ! D196  D(23,22,26,46)       -112.245          estimate D2E/DX2                !
 ! D197  D(4,23,24,25)         173.2639         estimate D2E/DX2                !
 ! D198  D(4,23,24,27)          -5.8362         estimate D2E/DX2                !
 ! D199  D(22,23,24,25)         -2.025          estimate D2E/DX2                !
 ! D200  D(22,23,24,27)        178.8749         estimate D2E/DX2                !
 ! D201  D(23,24,25,26)          6.5949         estimate D2E/DX2                !
 ! D202  D(23,24,25,37)       -113.0546         estimate D2E/DX2                !
 ! D203  D(23,24,25,44)        128.7882         estimate D2E/DX2                !
 ! D204  D(27,24,25,26)       -174.2853         estimate D2E/DX2                !
 ! D205  D(27,24,25,37)         66.0653         estimate D2E/DX2                !
 ! D206  D(27,24,25,44)        -52.092          estimate D2E/DX2                !
 ! D207  D(23,24,27,18)         -0.9707         estimate D2E/DX2                !
 ! D208  D(23,24,27,31)        179.6246         estimate D2E/DX2                !
 ! D209  D(25,24,27,18)       -179.9649         estimate D2E/DX2                !
 ! D210  D(25,24,27,31)          0.6304         estimate D2E/DX2                !
 ! D211  D(24,25,26,22)         -8.0014         estimate D2E/DX2                !
 ! D212  D(24,25,26,39)       -128.6493         estimate D2E/DX2                !
 ! D213  D(24,25,26,46)        110.4194         estimate D2E/DX2                !
 ! D214  D(37,25,26,22)        110.3423         estimate D2E/DX2                !
 ! D215  D(37,25,26,39)        -10.3057         estimate D2E/DX2                !
 ! D216  D(37,25,26,46)       -131.2369         estimate D2E/DX2                !
 ! D217  D(44,25,26,22)       -128.8751         estimate D2E/DX2                !
 ! D218  D(44,25,26,39)        110.4769         estimate D2E/DX2                !
 ! D219  D(44,25,26,46)        -10.4543         estimate D2E/DX2                !
 --------------------------------------------------------------------------------
 Trust Radius=3.00D-01 FncErr=1.00D-07 GrdErr=1.00D-06
 Number of steps in this run=    306 maximum allowed number of steps=    306.
 GradGradGradGradGradGradGradGradGradGradGradGradGradGradGradGradGradGrad

 Stoichiometry    C19H25CoN4O2(1+,2)
 Framework group  C1[X(C19H25CoN4O2)]
 Deg. of freedom   147
 Full point group                 C1      NOp   1
 Largest Abelian subgroup         C1      NOp   1
 Largest concise Abelian subgroup C1      NOp   1
                         Standard orientation:                         
 ---------------------------------------------------------------------
 Center     Atomic      Atomic             Coordinates (Angstroms)
 Number     Number       Type             X           Y           Z
 ---------------------------------------------------------------------
      1          8           0       -0.168044    0.184101   -2.318220
      2          1           0        0.111099   -0.653763   -2.743419
      3          1           0        0.455511    0.859866   -2.658158
      4         27           0       -0.031915    0.000008    0.000057
      5          7           0       -1.329301   -1.417829   -0.032024
      6          6           0       -1.043402   -2.778286    0.032019
      7          6           0       -2.314776   -3.601874    0.147711
      8          6           0       -3.435926   -2.557918   -0.025721
      9          6           0       -2.684783   -1.240393   -0.015774
     10          6           0        0.224043   -3.330597    0.014411
     11          6           0        1.404855   -2.550560   -0.093561
     12          7           0        1.365193   -1.224109   -0.144617
     13          6           0        2.729933   -0.669048   -0.368068
     14          6           0        3.672224   -1.803531    0.079283
     15          6           0        2.828335   -3.074141   -0.201567
     16          6           0        2.729949    0.669007    0.368039
     17          7           0        1.365221    1.224095    0.144596
     18          6           0        1.404905    2.550546    0.093557
     19          6           0        2.828395    3.074098    0.201551
     20          6           0        3.672258    1.803475   -0.079316
     21          6           0       -3.321926    0.000036    0.000025
     22          6           0       -2.684766    1.240451    0.015819
     23          7           0       -1.329276    1.417858    0.032056
     24          6           0       -1.043349    2.778309   -0.032070
     25          6           0       -2.314709    3.601889   -0.147970
     26          6           0       -3.435861    2.558001    0.025847
     27          6           0        0.224104    3.330601   -0.014434
     28          1           0        2.850567   -0.469116   -1.455682
     29          1           0        2.850585    0.469077    1.455654
     30          1           0       -4.416417    0.000043    0.000035
     31          1           0        0.317716    4.418512   -0.077155
     32          1           0        0.317636   -4.418512    0.077086
     33          1           0        3.874967    1.715655   -1.163254
     34          1           0        4.639017    1.796492    0.448652
     35          1           0       -4.196002   -2.594946    0.773625
     36          1           0        3.027716    3.902504   -0.499707
     37          1           0       -2.358297    4.092239   -1.138085
     38          1           0        3.010936    3.468654    1.221232
     39          1           0       -4.196186    2.595012   -0.773260
     40          1           0        3.874952   -1.715709    1.163218
     41          1           0        4.638978   -1.796569   -0.448697
     42          1           0        3.010860   -3.468708   -1.221247
     43          1           0        3.027646   -3.902545    0.499696
     44          1           0       -2.344227    4.406448    0.606580
     45          1           0       -2.344327   -4.406143   -0.607151
     46          1           0       -3.975540    2.680359    0.983851
     47          1           0       -2.358331   -4.092610    1.137632
     48          1           0       -3.975920   -2.680178   -0.983556
     49          8           0       -0.167928   -0.184232    2.318235
     50          1           0        0.456117   -0.859550    2.658163
     51          1           0        0.110555    0.653815    2.743508
 ---------------------------------------------------------------------
 Rotational constants (GHZ):      0.2574621      0.2464857      0.1417940
 Standard basis: 6-31G(d) (6D, 7F)
 There are   464 symmetry adapted cartesian basis functions of A   symmetry.
 There are   461 symmetry adapted basis functions of A   symmetry.
   461 basis functions,   904 primitive gaussians,   464 cartesian basis functions
   105 alpha electrons      104 beta electrons
       nuclear repulsion energy      3204.5042864655 Hartrees.
 NAtoms=   51 NActive=   51 NUniq=   51 SFac= 1.00D+00 NAtFMM=   60 NAOKFM=F Big=F
 Integral buffers will be    131072 words long.
 Raffenetti 2 integral format.
 Two-electron integral symmetry is turned on.
 One-electron integrals computed using PRISM.
 NBasis=   461 RedAO= T EigKep=  7.39D-04  NBF=   461
 NBsUse=   461 1.00D-06 EigRej= -1.00D+00 NBFU=   461
 ExpMin= 4.30D-02 ExpMax= 6.61D+04 ExpMxC= 9.93D+03 IAcc=3 IRadAn=         5 AccDes= 0.00D+00
 Harris functional with IExCor= 1009 and IRadAn=       5 diagonalized for initial guess.
 HarFok:  IExCor= 1009 AccDes= 0.00D+00 IRadAn=         5 IDoV= 1 UseB2=F ITyADJ=14
 ICtDFT=  3500011 ScaDFX=  1.000000  1.000000  1.000000  1.000000
 FoFCou: FMM=F IPFlag=           0 FMFlag=      100000 FMFlg1=           0
         NFxFlg=           0 DoJE=T BraDBF=F KetDBF=T FulRan=T
         wScrn=  0.000000 ICntrl=     500 IOpCl=  0 I1Cent=   200000004 NGrid=           0
         NMat0=    1 NMatS0=      1 NMatT0=    0 NMatD0=    1 NMtDS0=    0 NMtDT0=    0
 Petite list used in FoFCou.
 Initial guess <Sx>= 0.0000 <Sy>= 0.0000 <Sz>= 0.5000 <S**2>= 0.7500 S= 0.5000
 Requested convergence on RMS density matrix=1.00D-08 within 128 cycles.
 Requested convergence on MAX density matrix=1.00D-06.
 Requested convergence on             energy=1.00D-06.
 No special actions if energy rises.
 EnCoef did   100 forward-backward iterations
 EnCoef did     2 forward-backward iterations
 EnCoef did     5 forward-backward iterations
 EnCoef did     4 forward-backward iterations
 Restarting incremental Fock formation.
 SCF Done:  E(UTPSS-TPSS) =  -2491.34364028     A.U. after   21 cycles
            NFock= 21  Conv=0.77D-08     -V/T= 2.0049
 <Sx>= 0.0000 <Sy>= 0.0000 <Sz>= 0.5000 <S**2>= 0.7644 S= 0.5072
 <L.S>= 0.000000000000E+00
 Annihilation of the first spin contaminant:
 S**2 before annihilation     0.7644,   after     0.7502

 **********************************************************************

            Population analysis using the SCF density.

 **********************************************************************

 Orbital symmetries:
 Alpha Orbitals:
       Occupied  (A) (A) (A) (A) (A) (A) (A) (A) (A) (A) (A) (A)
                 (A) (A) (A) (A) (A) (A) (A) (A) (A) (A) (A) (A)
                 (A) (A) (A) (A) (A) (A) (A) (A) (A) (A) (A) (A)
                 (A) (A) (A) (A) (A) (A) (A) (A) (A) (A) (A) (A)
                 (A) (A) (A) (A) (A) (A) (A) (A) (A) (A) (A) (A)
                 (A) (A) (A) (A) (A) (A) (A) (A) (A) (A) (A) (A)
                 (A) (A) (A) (A) (A) (A) (A) (A) (A) (A) (A) (A)
                 (A) (A) (A) (A) (A) (A) (A) (A) (A) (A) (A) (A)
                 (A) (A) (A) (A) (A) (A) (A) (A) (A)
       Virtual   (A) (A) (A) (A) (A) (A) (A) (A) (A) (A) (A) (A)
                 (A) (A) (A) (A) (A) (A) (A) (A) (A) (A) (A) (A)
                 (A) (A) (A) (A) (A) (A) (A) (A) (A) (A) (A) (A)
                 (A) (A) (A) (A) (A) (A) (A) (A) (A) (A) (A) (A)
                 (A) (A) (A) (A) (A) (A) (A) (A) (A) (A) (A) (A)
                 (A) (A) (A) (A) (A) (A) (A) (A) (A) (A) (A) (A)
                 (A) (A) (A) (A) (A) (A) (A) (A) (A) (A) (A) (A)
                 (A) (A) (A) (A) (A) (A) (A) (A) (A) (A) (A) (A)
                 (A) (A) (A) (A) (A) (A) (A) (A) (A) (A) (A) (A)
                 (A) (A) (A) (A) (A) (A) (A) (A) (A) (A) (A) (A)
                 (A) (A) (A) (A) (A) (A) (A) (A) (A) (A) (A) (A)
                 (A) (A) (A) (A) (A) (A) (A) (A) (A) (A) (A) (A)
                 (A) (A) (A) (A) (A) (A) (A) (A) (A) (A) (A) (A)
                 (A) (A) (A) (A) (A) (A) (A) (A) (A) (A) (A) (A)
                 (A) (A) (A) (A) (A) (A) (A) (A) (A) (A) (A) (A)
                 (A) (A) (A) (A) (A) (A) (A) (A) (A) (A) (A) (A)
                 (A) (A) (A) (A) (A) (A) (A) (A) (A) (A) (A) (A)
                 (A) (A) (A) (A) (A) (A) (A) (A) (A) (A) (A) (A)
                 (A) (A) (A) (A) (A) (A) (A) (A) (A) (A) (A) (A)
                 (A) (A) (A) (A) (A) (A) (A) (A) (A) (A) (A) (A)
                 (A) (A) (A) (A) (A) (A) (A) (A) (A) (A) (A) (A)
                 (A) (A) (A) (A) (A) (A) (A) (A) (A) (A) (A) (A)
                 (A) (A) (A) (A) (A) (A) (A) (A) (A) (A) (A) (A)
                 (A) (A) (A) (A) (A) (A) (A) (A) (A) (A) (A) (A)
                 (A) (A) (A) (A) (A) (A) (A) (A) (A) (A) (A) (A)
                 (A) (A) (A) (A) (A) (A) (A) (A) (A) (A) (A) (A)
                 (A) (A) (A) (A) (A) (A) (A) (A) (A) (A) (A) (A)
                 (A) (A) (A) (A) (A) (A) (A) (A) (A) (A) (A) (A)
                 (A) (A) (A) (A) (A) (A) (A) (A) (A) (A) (A) (A)
                 (A) (A) (A) (A) (A) (A) (A) (A)
 Beta  Orbitals:
       Occupied  (A) (A) (A) (A) (A) (A) (A) (A) (A) (A) (A) (A)
                 (A) (A) (A) (A) (A) (A) (A) (A) (A) (A) (A) (A)
                 (A) (A) (A) (A) (A) (A) (A) (A) (A) (A) (A) (A)
                 (A) (A) (A) (A) (A) (A) (A) (A) (A) (A) (A) (A)
                 (A) (A) (A) (A) (A) (A) (A) (A) (A) (A) (A) (A)
                 (A) (A) (A) (A) (A) (A) (A) (A) (A) (A) (A) (A)
                 (A) (A) (A) (A) (A) (A) (A) (A) (A) (A) (A) (A)
                 (A) (A) (A) (A) (A) (A) (A) (A) (A) (A) (A) (A)
                 (A) (A) (A) (A) (A) (A) (A) (A)
       Virtual   (A) (A) (A) (A) (A) (A) (A) (A) (A) (A) (A) (A)
                 (A) (A) (A) (A) (A) (A) (A) (A) (A) (A) (A) (A)
                 (A) (A) (A) (A) (A) (A) (A) (A) (A) (A) (A) (A)
                 (A) (A) (A) (A) (A) (A) (A) (A) (A) (A) (A) (A)
                 (A) (A) (A) (A) (A) (A) (A) (A) (A) (A) (A) (A)
                 (A) (A) (A) (A) (A) (A) (A) (A) (A) (A) (A) (A)
                 (A) (A) (A) (A) (A) (A) (A) (A) (A) (A) (A) (A)
                 (A) (A) (A) (A) (A) (A) (A) (A) (A) (A) (A) (A)
                 (A) (A) (A) (A) (A) (A) (A) (A) (A) (A) (A) (A)
                 (A) (A) (A) (A) (A) (A) (A) (A) (A) (A) (A) (A)
                 (A) (A) (A) (A) (A) (A) (A) (A) (A) (A) (A) (A)
                 (A) (A) (A) (A) (A) (A) (A) (A) (A) (A) (A) (A)
                 (A) (A) (A) (A) (A) (A) (A) (A) (A) (A) (A) (A)
                 (A) (A) (A) (A) (A) (A) (A) (A) (A) (A) (A) (A)
                 (A) (A) (A) (A) (A) (A) (A) (A) (A) (A) (A) (A)
                 (A) (A) (A) (A) (A) (A) (A) (A) (A) (A) (A) (A)
                 (A) (A) (A) (A) (A) (A) (A) (A) (A) (A) (A) (A)
                 (A) (A) (A) (A) (A) (A) (A) (A) (A) (A) (A) (A)
                 (A) (A) (A) (A) (A) (A) (A) (A) (A) (A) (A) (A)
                 (A) (A) (A) (A) (A) (A) (A) (A) (A) (A) (A) (A)
                 (A) (A) (A) (A) (A) (A) (A) (A) (A) (A) (A) (A)
                 (A) (A) (A) (A) (A) (A) (A) (A) (A) (A) (A) (A)
                 (A) (A) (A) (A) (A) (A) (A) (A) (A) (A) (A) (A)
                 (A) (A) (A) (A) (A) (A) (A) (A) (A) (A) (A) (A)
                 (A) (A) (A) (A) (A) (A) (A) (A) (A) (A) (A) (A)
                 (A) (A) (A) (A) (A) (A) (A) (A) (A) (A) (A) (A)
                 (A) (A) (A) (A) (A) (A) (A) (A) (A) (A) (A) (A)
                 (A) (A) (A) (A) (A) (A) (A) (A) (A) (A) (A) (A)
                 (A) (A) (A) (A) (A) (A) (A) (A) (A) (A) (A) (A)
                 (A) (A) (A) (A) (A) (A) (A) (A) (A)
 The electronic state is 2-A.
 Alpha  occ. eigenvalues -- -276.77257 -32.59380 -28.25504 -28.25446 -28.25006
 Alpha  occ. eigenvalues --  -19.04586 -19.04585 -14.24749 -14.24749 -14.24181
 Alpha  occ. eigenvalues --  -14.24181 -10.15018 -10.15018 -10.14902 -10.14901
 Alpha  occ. eigenvalues --  -10.14744 -10.14733 -10.14585 -10.14584 -10.11753
 Alpha  occ. eigenvalues --  -10.11752 -10.11487 -10.11487 -10.11106 -10.11106
 Alpha  occ. eigenvalues --  -10.10995 -10.10995 -10.10015 -10.10015 -10.09577
 Alpha  occ. eigenvalues --   -3.70953  -2.41124  -2.40965  -2.40912  -1.07061
 Alpha  occ. eigenvalues --   -1.07016  -1.00439  -0.99109  -0.98848  -0.97263
 Alpha  occ. eigenvalues --   -0.85733  -0.82572  -0.82468  -0.82003  -0.81474
 Alpha  occ. eigenvalues --   -0.81432  -0.80775  -0.76239  -0.75588  -0.70096
 Alpha  occ. eigenvalues --   -0.68894  -0.67232  -0.64578  -0.64422  -0.63608
 Alpha  occ. eigenvalues --   -0.61238  -0.60775  -0.60758  -0.60692  -0.59076
 Alpha  occ. eigenvalues --   -0.56995  -0.56238  -0.55924  -0.55093  -0.54274
 Alpha  occ. eigenvalues --   -0.53367  -0.52778  -0.52336  -0.51639  -0.49551
 Alpha  occ. eigenvalues --   -0.48616  -0.48180  -0.48041  -0.47422  -0.46440
 Alpha  occ. eigenvalues --   -0.46173  -0.45731  -0.45148  -0.44533  -0.44486
 Alpha  occ. eigenvalues --   -0.44353  -0.44274  -0.44018  -0.43668  -0.43350
 Alpha  occ. eigenvalues --   -0.42963  -0.42281  -0.41931  -0.41550  -0.41197
 Alpha  occ. eigenvalues --   -0.40539  -0.40278  -0.40265  -0.39758  -0.38653
 Alpha  occ. eigenvalues --   -0.37813  -0.37813  -0.37045  -0.33762  -0.31862
 Alpha  occ. eigenvalues --   -0.29999  -0.28367  -0.27677  -0.26811  -0.26581
 Alpha virt. eigenvalues --   -0.19169  -0.16605  -0.15872  -0.13496  -0.09744
 Alpha virt. eigenvalues --   -0.09331  -0.06543  -0.05559  -0.05491  -0.05137
 Alpha virt. eigenvalues --   -0.03796  -0.02656  -0.01619  -0.01581  -0.00832
 Alpha virt. eigenvalues --    0.00112   0.00617   0.01033   0.01550   0.01679
 Alpha virt. eigenvalues --    0.02447   0.02854   0.03715   0.04014   0.04391
 Alpha virt. eigenvalues --    0.04580   0.04657   0.05367   0.05848   0.05888
 Alpha virt. eigenvalues --    0.06114   0.06516   0.06967   0.07652   0.07742
 Alpha virt. eigenvalues --    0.08151   0.09109   0.09312   0.09604   0.09887
 Alpha virt. eigenvalues --    0.11530   0.11625   0.11631   0.12120   0.12287
 Alpha virt. eigenvalues --    0.12993   0.13576   0.14974   0.16316   0.16480
 Alpha virt. eigenvalues --    0.16726   0.18193   0.19086   0.20238   0.21868
 Alpha virt. eigenvalues --    0.22645   0.24246   0.25481   0.25976   0.28456
 Alpha virt. eigenvalues --    0.30017   0.30346   0.31113   0.33391   0.33670
 Alpha virt. eigenvalues --    0.37913   0.38191   0.38514   0.39869   0.39925
 Alpha virt. eigenvalues --    0.40305   0.40642   0.41671   0.42759   0.43540
 Alpha virt. eigenvalues --    0.43854   0.44329   0.44458   0.45228   0.45345
 Alpha virt. eigenvalues --    0.45577   0.45901   0.46759   0.47777   0.48266
 Alpha virt. eigenvalues --    0.48479   0.49175   0.50118   0.50502   0.51239
 Alpha virt. eigenvalues --    0.51707   0.51816   0.52723   0.53440   0.53726
 Alpha virt. eigenvalues --    0.55278   0.55764   0.56882   0.58876   0.59552
 Alpha virt. eigenvalues --    0.59754   0.60879   0.61612   0.62329   0.62913
 Alpha virt. eigenvalues --    0.63267   0.65366   0.65436   0.66689   0.67064
 Alpha virt. eigenvalues --    0.67801   0.68469   0.69540   0.69670   0.70950
 Alpha virt. eigenvalues --    0.71396   0.72098   0.72438   0.72886   0.72912
 Alpha virt. eigenvalues --    0.73220   0.73558   0.73887   0.74028   0.74347
 Alpha virt. eigenvalues --    0.75562   0.76062   0.76148   0.76864   0.77686
 Alpha virt. eigenvalues --    0.77751   0.78132   0.79061   0.79171   0.80079
 Alpha virt. eigenvalues --    0.80278   0.80572   0.81486   0.82511   0.82550
 Alpha virt. eigenvalues --    0.82976   0.83049   0.83450   0.83934   0.84282
 Alpha virt. eigenvalues --    0.85985   0.86492   0.88053   0.89123   0.89900
 Alpha virt. eigenvalues --    0.91852   0.94811   0.95485   0.95694   0.95928
 Alpha virt. eigenvalues --    0.96643   0.97385   1.00249   1.00821   1.02162
 Alpha virt. eigenvalues --    1.02204   1.03622   1.04000   1.05673   1.06688
 Alpha virt. eigenvalues --    1.08215   1.09027   1.09876   1.12356   1.14032
 Alpha virt. eigenvalues --    1.14423   1.14733   1.14964   1.16474   1.17047
 Alpha virt. eigenvalues --    1.17266   1.22099   1.24449   1.24465   1.25275
 Alpha virt. eigenvalues --    1.25752   1.26167   1.27622   1.28307   1.30178
 Alpha virt. eigenvalues --    1.30502   1.30885   1.34024   1.35379   1.38040
 Alpha virt. eigenvalues --    1.39361   1.40864   1.42382   1.43525   1.45455
 Alpha virt. eigenvalues --    1.47187   1.48836   1.50068   1.50629   1.52818
 Alpha virt. eigenvalues --    1.53544   1.54400   1.54909   1.56820   1.57355
 Alpha virt. eigenvalues --    1.58163   1.59536   1.60190   1.60204   1.61335
 Alpha virt. eigenvalues --    1.62768   1.63775   1.64668   1.65721   1.66076
 Alpha virt. eigenvalues --    1.66122   1.67325   1.67649   1.67843   1.68689
 Alpha virt. eigenvalues --    1.68691   1.70007   1.70122   1.70709   1.72689
 Alpha virt. eigenvalues --    1.73492   1.76214   1.76374   1.77649   1.78733
 Alpha virt. eigenvalues --    1.79153   1.80012   1.80107   1.81744   1.82308
 Alpha virt. eigenvalues --    1.83812   1.84126   1.85273   1.85483   1.87361
 Alpha virt. eigenvalues --    1.87927   1.88890   1.89467   1.90279   1.92604
 Alpha virt. eigenvalues --    1.93102   1.93616   1.95269   1.95349   1.95863
 Alpha virt. eigenvalues --    1.99393   2.01443   2.01975   2.02527   2.04265
 Alpha virt. eigenvalues --    2.05340   2.05685   2.06626   2.07237   2.08463
 Alpha virt. eigenvalues --    2.08775   2.09606   2.09646   2.10065   2.11115
 Alpha virt. eigenvalues --    2.12681   2.13105   2.13635   2.13901   2.15058
 Alpha virt. eigenvalues --    2.15993   2.16709   2.16986   2.18470   2.18533
 Alpha virt. eigenvalues --    2.20070   2.22297   2.22645   2.25984   2.26234
 Alpha virt. eigenvalues --    2.29785   2.29907   2.31447   2.33651   2.34140
 Alpha virt. eigenvalues --    2.35029   2.36200   2.36778   2.37247   2.38295
 Alpha virt. eigenvalues --    2.38629   2.38700   2.40698   2.40851   2.43953
 Alpha virt. eigenvalues --    2.44150   2.45458   2.46721   2.48358   2.48639
 Alpha virt. eigenvalues --    2.50026   2.51828   2.52188   2.53341   2.54554
 Alpha virt. eigenvalues --    2.55700   2.58925   2.59876   2.60334   2.61366
 Alpha virt. eigenvalues --    2.62407   2.64729   2.67026   2.68384   2.70485
 Alpha virt. eigenvalues --    2.71175   2.72988   2.73489   2.76235   2.80583
 Alpha virt. eigenvalues --    2.84473   2.89922   2.94400   2.94519   3.01249
 Alpha virt. eigenvalues --    3.07725   3.08460   3.20596   3.24080   3.28732
 Alpha virt. eigenvalues --    3.62457   3.70765   3.95777   4.00821   4.02391
 Alpha virt. eigenvalues --    4.04544   4.05126   4.06545   4.06662   4.06811
 Alpha virt. eigenvalues --    4.11347   4.15474   4.18798   4.20170   4.20824
 Alpha virt. eigenvalues --    4.23054   4.26250   4.34227   4.42808   4.44930
 Alpha virt. eigenvalues --    4.49450   4.53482   4.54030   4.59881   4.61239
 Alpha virt. eigenvalues --   26.16928
  Beta  occ. eigenvalues -- -276.77233 -32.57590 -28.24454 -28.24451 -28.22711
  Beta  occ. eigenvalues --  -19.04430 -19.04429 -14.24758 -14.24758 -14.24194
  Beta  occ. eigenvalues --  -14.24194 -10.15049 -10.15048 -10.14928 -10.14927
  Beta  occ. eigenvalues --  -10.14747 -10.14736 -10.14629 -10.14628 -10.11753
  Beta  occ. eigenvalues --  -10.11753 -10.11487 -10.11487 -10.11106 -10.11106
  Beta  occ. eigenvalues --  -10.10994 -10.10994 -10.10002 -10.10002 -10.09564
  Beta  occ. eigenvalues --   -3.66461  -2.37742  -2.37654  -2.34130  -1.06831
  Beta  occ. eigenvalues --   -1.06788  -1.00454  -0.99137  -0.98877  -0.97284
  Beta  occ. eigenvalues --   -0.85759  -0.82592  -0.82489  -0.82010  -0.81483
  Beta  occ. eigenvalues --   -0.81439  -0.80780  -0.76237  -0.75629  -0.70107
  Beta  occ. eigenvalues --   -0.68902  -0.67236  -0.64593  -0.64444  -0.63628
  Beta  occ. eigenvalues --   -0.61250  -0.60735  -0.60656  -0.60593  -0.59051
  Beta  occ. eigenvalues --   -0.57002  -0.56272  -0.55947  -0.55004  -0.54292
  Beta  occ. eigenvalues --   -0.53397  -0.52809  -0.52340  -0.51642  -0.49557
  Beta  occ. eigenvalues --   -0.48437  -0.47936  -0.47783  -0.47416  -0.46431
  Beta  occ. eigenvalues --   -0.46178  -0.45726  -0.45120  -0.44547  -0.44482
  Beta  occ. eigenvalues --   -0.44309  -0.44064  -0.43852  -0.43387  -0.43357
  Beta  occ. eigenvalues --   -0.42856  -0.42210  -0.41945  -0.41533  -0.41220
  Beta  occ. eigenvalues --   -0.40505  -0.40041  -0.39433  -0.39349  -0.38666
  Beta  occ. eigenvalues --   -0.37757  -0.37672  -0.37069  -0.33709  -0.31383
  Beta  occ. eigenvalues --   -0.28305  -0.27590  -0.26389  -0.25545
  Beta virt. eigenvalues --   -0.19137  -0.17827  -0.16039  -0.13620  -0.13614
  Beta virt. eigenvalues --   -0.09688  -0.08985  -0.06570  -0.05580  -0.05544
  Beta virt. eigenvalues --   -0.05138  -0.03798  -0.02636  -0.01591  -0.01573
  Beta virt. eigenvalues --   -0.00823   0.00135   0.00683   0.01040   0.01561
  Beta virt. eigenvalues --    0.01678   0.02446   0.02840   0.03711   0.04003
  Beta virt. eigenvalues --    0.04382   0.04574   0.04657   0.05349   0.05838
  Beta virt. eigenvalues --    0.05885   0.06126   0.06497   0.06970   0.07666
  Beta virt. eigenvalues --    0.07775   0.08145   0.09115   0.09331   0.09576
  Beta virt. eigenvalues --    0.09868   0.11534   0.11641   0.11648   0.12266
  Beta virt. eigenvalues --    0.12278   0.13009   0.13670   0.15042   0.16298
  Beta virt. eigenvalues --    0.16639   0.16762   0.18175   0.19494   0.20238
  Beta virt. eigenvalues --    0.22047   0.23488   0.24371   0.25718   0.26403
  Beta virt. eigenvalues --    0.28528   0.30043   0.30506   0.31125   0.33380
  Beta virt. eigenvalues --    0.33656   0.37902   0.38249   0.38537   0.39835
  Beta virt. eigenvalues --    0.39927   0.40352   0.40642   0.41648   0.42772
  Beta virt. eigenvalues --    0.43551   0.43827   0.44349   0.44470   0.45207
  Beta virt. eigenvalues --    0.45378   0.45599   0.45913   0.46755   0.47829
  Beta virt. eigenvalues --    0.48273   0.48491   0.49176   0.50137   0.50514
  Beta virt. eigenvalues --    0.51236   0.51710   0.51829   0.52744   0.53468
  Beta virt. eigenvalues --    0.53741   0.55274   0.55748   0.56858   0.58799
  Beta virt. eigenvalues --    0.59536   0.59661   0.60952   0.61578   0.62345
  Beta virt. eigenvalues --    0.63003   0.63309   0.65371   0.65462   0.66695
  Beta virt. eigenvalues --    0.67040   0.67828   0.68511   0.69560   0.69711
  Beta virt. eigenvalues --    0.70957   0.71406   0.72097   0.72422   0.72893
  Beta virt. eigenvalues --    0.72915   0.73226   0.73559   0.73987   0.74016
  Beta virt. eigenvalues --    0.74364   0.75587   0.76145   0.76279   0.76923
  Beta virt. eigenvalues --    0.77718   0.77823   0.78126   0.79080   0.79255
  Beta virt. eigenvalues --    0.80077   0.80424   0.80572   0.81485   0.82536
  Beta virt. eigenvalues --    0.82545   0.82967   0.83035   0.83488   0.83939
  Beta virt. eigenvalues --    0.84343   0.85934   0.86490   0.88308   0.89235
  Beta virt. eigenvalues --    0.89988   0.92144   0.94837   0.95619   0.95701
  Beta virt. eigenvalues --    0.95948   0.96724   0.97689   1.00313   1.00877
  Beta virt. eigenvalues --    1.02205   1.02276   1.03682   1.04031   1.05752
  Beta virt. eigenvalues --    1.06736   1.08214   1.09047   1.10018   1.12423
  Beta virt. eigenvalues --    1.14094   1.14429   1.14859   1.15061   1.16550
  Beta virt. eigenvalues --    1.17097   1.17320   1.22154   1.24535   1.24602
  Beta virt. eigenvalues --    1.25330   1.25762   1.26221   1.27931   1.28320
  Beta virt. eigenvalues --    1.30320   1.30632   1.30961   1.34240   1.35404
  Beta virt. eigenvalues --    1.38054   1.39459   1.40890   1.42536   1.43671
  Beta virt. eigenvalues --    1.46575   1.47665   1.49061   1.50113   1.50705
  Beta virt. eigenvalues --    1.52902   1.53926   1.54600   1.55004   1.56938
  Beta virt. eigenvalues --    1.57590   1.58250   1.59514   1.60157   1.60243
  Beta virt. eigenvalues --    1.61377   1.62931   1.63769   1.64747   1.65705
  Beta virt. eigenvalues --    1.66081   1.66198   1.67356   1.67630   1.67847
  Beta virt. eigenvalues --    1.68767   1.68873   1.70050   1.70335   1.70916
  Beta virt. eigenvalues --    1.72793   1.73651   1.76215   1.76421   1.78059
  Beta virt. eigenvalues --    1.79073   1.79434   1.80126   1.80390   1.81766
  Beta virt. eigenvalues --    1.82339   1.83883   1.84162   1.85324   1.85532
  Beta virt. eigenvalues --    1.87355   1.87924   1.88932   1.89555   1.90475
  Beta virt. eigenvalues --    1.92713   1.93270   1.93774   1.95304   1.95351
  Beta virt. eigenvalues --    1.96378   1.99718   2.01671   2.02298   2.02893
  Beta virt. eigenvalues --    2.04357   2.05488   2.05882   2.06596   2.07528
  Beta virt. eigenvalues --    2.08871   2.08952   2.09764   2.09814   2.10439
  Beta virt. eigenvalues --    2.11423   2.12738   2.13192   2.13659   2.14187
  Beta virt. eigenvalues --    2.15156   2.16165   2.17020   2.17125   2.18657
  Beta virt. eigenvalues --    2.19124   2.20322   2.22532   2.22639   2.26246
  Beta virt. eigenvalues --    2.26253   2.29927   2.30097   2.31605   2.33796
  Beta virt. eigenvalues --    2.34162   2.35677   2.36442   2.36884   2.37272
  Beta virt. eigenvalues --    2.38663   2.38795   2.39167   2.40915   2.40983
  Beta virt. eigenvalues --    2.44348   2.44499   2.45900   2.46973   2.48353
  Beta virt. eigenvalues --    2.49171   2.50099   2.52252   2.53333   2.53791
  Beta virt. eigenvalues --    2.55710   2.56632   2.59363   2.59971   2.60448
  Beta virt. eigenvalues --    2.61586   2.62503   2.64910   2.67212   2.68446
  Beta virt. eigenvalues --    2.70657   2.71263   2.73069   2.73622   2.76279
  Beta virt. eigenvalues --    2.80917   2.84550   2.91412   2.94447   2.94575
  Beta virt. eigenvalues --    3.01939   3.08148   3.09240   3.20918   3.24390
  Beta virt. eigenvalues --    3.29240   3.62879   3.71074   3.95840   4.00818
  Beta virt. eigenvalues --    4.02353   4.04527   4.05128   4.06510   4.06628
  Beta virt. eigenvalues --    4.06793   4.11319   4.15463   4.18799   4.20161
  Beta virt. eigenvalues --    4.20802   4.23036   4.26281   4.34167   4.42805
  Beta virt. eigenvalues --    4.44892   4.49456   4.53448   4.53988   4.59851
  Beta virt. eigenvalues --    4.61245  26.20512
          Condensed to atoms (all electrons):
          Atomic-Atomic Spin Densities.
 Mulliken charges and spin densities:
               1          2
     1  O   -0.713175   0.033125
     2  H    0.431787   0.003461
     3  H    0.429349   0.003463
     4  Co   0.993797   1.074795
     5  N   -0.667257  -0.010552
     6  C    0.348217  -0.016385
     7  C   -0.378535   0.000708
     8  C   -0.380288   0.001547
     9  C    0.380803  -0.028049
    10  C   -0.312335   0.009612
    11  C    0.348220  -0.019017
    12  N   -0.610692  -0.013442
    13  C    0.015927  -0.002265
    14  C   -0.327658  -0.000071
    15  C   -0.375234   0.000443
    16  C    0.015921  -0.002265
    17  N   -0.610676  -0.013442
    18  C    0.348218  -0.019018
    19  C   -0.375235   0.000443
    20  C   -0.327658  -0.000071
    21  C   -0.304170   0.009935
    22  C    0.380795  -0.028048
    23  N   -0.667277  -0.010552
    24  C    0.348198  -0.016386
    25  C   -0.378531   0.000708
    26  C   -0.380286   0.001547
    27  C   -0.312342   0.009612
    28  H    0.164323   0.000714
    29  H    0.164319   0.000714
    30  H    0.169640  -0.000229
    31  H    0.170808  -0.000313
    32  H    0.170808  -0.000313
    33  H    0.171476   0.000032
    34  H    0.184804  -0.000057
    35  H    0.199180  -0.000943
    36  H    0.194441  -0.000479
    37  H    0.202820  -0.000796
    38  H    0.193631  -0.001070
    39  H    0.199175  -0.000942
    40  H    0.171472   0.000032
    41  H    0.184805  -0.000057
    42  H    0.193631  -0.001070
    43  H    0.194442  -0.000479
    44  H    0.197660  -0.000455
    45  H    0.197666  -0.000455
    46  H    0.202114  -0.001463
    47  H    0.202820  -0.000796
    48  H    0.202114  -0.001462
    49  O   -0.713180   0.033127
    50  H    0.429351   0.003464
    51  H    0.431796   0.003463
 Sum of Mulliken charges =   1.00000   1.00000
 Mulliken charges and spin densities with hydrogens summed into heavy atoms:
               1          2
     1  O    0.147961   0.040049
     4  Co   0.993797   1.074795
     5  N   -0.667257  -0.010552
     6  C    0.348217  -0.016385
     7  C    0.021951  -0.000543
     8  C    0.021006  -0.000858
     9  C    0.380803  -0.028049
    10  C   -0.141527   0.009298
    11  C    0.348220  -0.019017
    12  N   -0.610692  -0.013442
    13  C    0.180250  -0.001551
    14  C    0.028619  -0.000096
    15  C    0.012839  -0.001106
    16  C    0.180240  -0.001552
    17  N   -0.610676  -0.013442
    18  C    0.348218  -0.019018
    19  C    0.012837  -0.001106
    20  C    0.028622  -0.000096
    21  C   -0.134531   0.009706
    22  C    0.380795  -0.028048
    23  N   -0.667277  -0.010552
    24  C    0.348198  -0.016386
    25  C    0.021949  -0.000543
    26  C    0.021003  -0.000858
    27  C   -0.141535   0.009298
    49  O    0.147967   0.040054
 Electronic spatial extent (au):  <R**2>=           7903.2663
 Charge=              1.0000 electrons
 Dipole moment (field-independent basis, Debye):
    X=              1.9602    Y=              0.0006    Z=              0.0002  Tot=              1.9602
 Quadrupole moment (field-independent basis, Debye-Ang):
   XX=           -112.2352   YY=           -112.5199   ZZ=           -138.0711
   XY=             -0.0010   XZ=             -0.0006   YZ=              0.8053
 Traceless Quadrupole moment (field-independent basis, Debye-Ang):
   XX=              8.7069   YY=              8.4222   ZZ=            -17.1291
   XY=             -0.0010   XZ=             -0.0006   YZ=              0.8053
 Octapole moment (field-independent basis, Debye-Ang**2):
  XXX=            -17.0133  YYY=             -0.0027  ZZZ=              0.0059  XYY=            -17.6261
  XXY=             -0.0025  XXZ=              0.0028  XZZ=             25.4507  YZZ=              0.0079
  YYZ=             -0.0048  XYZ=              0.5642
 Hexadecapole moment (field-independent basis, Debye-Ang**3):
 XXXX=          -4470.9261 YYYY=          -4187.8585 ZZZZ=           -487.3558 XXXY=              0.0070
 XXXZ=              0.0032 YYYX=              0.0018 YYYZ=            -18.7237 ZZZX=             -0.0050
 ZZZY=              5.5908 XXYY=          -1350.7676 XXZZ=           -929.8126 YYZZ=           -872.7599
 XXYZ=              6.6167 YYXZ=              0.0021 ZZXY=             -0.0115
 N-N= 3.204504286465D+03 E-N=-1.225856914228D+04  KE= 2.479241804658D+03
                          Isotropic Fermi Contact Couplings
        Atom                 a.u.       MegaHertz       Gauss      10(-4) cm-1
     1  O(17)              0.08637     -52.35663     -18.68215     -17.46429
     2  H(1)              -0.00002      -0.07591      -0.02709      -0.02532
     3  H(1)              -0.00004      -0.17115      -0.06107      -0.05709
     4  Co(59)             0.26753     283.02043     100.98872      94.40545
     5  N(14)             -0.00716      -2.31250      -0.82516      -0.77137
     6  C(13)             -0.00225      -2.52594      -0.90132      -0.84256
     7  C(13)              0.00020       0.22822       0.08143       0.07613
     8  C(13)              0.00048       0.53940       0.19247       0.17993
     9  C(13)             -0.00371      -4.17221      -1.48875      -1.39170
    10  C(13)              0.00207       2.32670       0.83022       0.77610
    11  C(13)             -0.00237      -2.66940      -0.95251      -0.89041
    12  N(14)             -0.00931      -3.00842      -1.07348      -1.00350
    13  C(13)              0.00021       0.23749       0.08474       0.07922
    14  C(13)              0.00002       0.01716       0.00612       0.00572
    15  C(13)              0.00003       0.02853       0.01018       0.00952
    16  C(13)              0.00021       0.23769       0.08481       0.07928
    17  N(14)             -0.00931      -3.00869      -1.07358      -1.00359
    18  C(13)             -0.00237      -2.66954      -0.95256      -0.89046
    19  C(13)              0.00003       0.02851       0.01017       0.00951
    20  C(13)              0.00002       0.01722       0.00614       0.00574
    21  C(13)              0.00243       2.73067       0.97437       0.91085
    22  C(13)             -0.00371      -4.17222      -1.48875      -1.39170
    23  N(14)             -0.00716      -2.31260      -0.82519      -0.77140
    24  C(13)             -0.00225      -2.52603      -0.90135      -0.84259
    25  C(13)              0.00020       0.22819       0.08142       0.07612
    26  C(13)              0.00048       0.53930       0.19244       0.17989
    27  C(13)              0.00207       2.32674       0.83024       0.77612
    28  H(1)               0.00025       1.11446       0.39767       0.37174
    29  H(1)               0.00025       1.11473       0.39776       0.37183
    30  H(1)              -0.00007      -0.30869      -0.11015      -0.10297
    31  H(1)              -0.00010      -0.45663      -0.16294      -0.15231
    32  H(1)              -0.00010      -0.45662      -0.16293      -0.15231
    33  H(1)               0.00001       0.06597       0.02354       0.02200
    34  H(1)              -0.00004      -0.16651      -0.05941      -0.05554
    35  H(1)              -0.00053      -2.35349      -0.83978      -0.78504
    36  H(1)              -0.00026      -1.16494      -0.41568      -0.38858
    37  H(1)              -0.00043      -1.91799      -0.68439      -0.63977
    38  H(1)              -0.00055      -2.44859      -0.87372      -0.81676
    39  H(1)              -0.00053      -2.35219      -0.83932      -0.78460
    40  H(1)               0.00001       0.06599       0.02355       0.02201
    41  H(1)              -0.00004      -0.16652      -0.05942      -0.05554
    42  H(1)              -0.00055      -2.44849      -0.87368      -0.81673
    43  H(1)              -0.00026      -1.16468      -0.41559      -0.38850
    44  H(1)              -0.00027      -1.22127      -0.43578      -0.40737
    45  H(1)              -0.00027      -1.22213      -0.43609      -0.40766
    46  H(1)              -0.00076      -3.41570      -1.21881      -1.13935
    47  H(1)              -0.00043      -1.91730      -0.68414      -0.63954
    48  H(1)              -0.00076      -3.41501      -1.21856      -1.13913
    49  O(17)              0.08639     -52.36966     -18.68680     -17.46864
    50  H(1)              -0.00004      -0.17079      -0.06094      -0.05697
    51  H(1)              -0.00002      -0.07465      -0.02664      -0.02490
 --------------------------------------------------------
       Center         ----  Spin Dipole Couplings  ----
                      3XX-RR        3YY-RR        3ZZ-RR
 --------------------------------------------------------
     1   Atom       -0.074757     -0.096970      0.171727
     2   Atom       -0.011867     -0.001280      0.013147
     3   Atom       -0.006991     -0.003556      0.010546
     4   Atom       -1.508199     -1.302690      2.810889
     5   Atom       -0.001486      0.002225     -0.000739
     6   Atom        0.005204      0.016352     -0.021556
     7   Atom       -0.000456      0.001911     -0.001455
     8   Atom        0.001858     -0.000341     -0.001517
     9   Atom        0.021903      0.012566     -0.034470
    10   Atom       -0.008755      0.004613      0.004142
    11   Atom        0.008226      0.016581     -0.024807
    12   Atom       -0.007736     -0.000329      0.008065
    13   Atom        0.008743     -0.004479     -0.004264
    14   Atom        0.002719     -0.001110     -0.001609
    15   Atom       -0.000215      0.001445     -0.001230
    16   Atom        0.008743     -0.004479     -0.004264
    17   Atom       -0.007737     -0.000329      0.008066
    18   Atom        0.008228      0.016581     -0.024809
    19   Atom       -0.000215      0.001445     -0.001230
    20   Atom        0.002719     -0.001110     -0.001609
    21   Atom        0.005886     -0.008725      0.002839
    22   Atom        0.021903      0.012566     -0.034469
    23   Atom       -0.001486      0.002226     -0.000739
    24   Atom        0.005204      0.016353     -0.021557
    25   Atom       -0.000456      0.001911     -0.001455
    26   Atom        0.001858     -0.000341     -0.001517
    27   Atom       -0.008755      0.004613      0.004142
    28   Atom        0.006191     -0.004219     -0.001972
    29   Atom        0.006192     -0.004219     -0.001972
    30   Atom        0.003556     -0.002295     -0.001262
    31   Atom       -0.002255      0.003619     -0.001364
    32   Atom       -0.002255      0.003619     -0.001364
    33   Atom        0.002290     -0.000966     -0.001324
    34   Atom        0.001769     -0.000733     -0.001036
    35   Atom        0.001166     -0.000266     -0.000900
    36   Atom        0.000072      0.000949     -0.001020
    37   Atom       -0.000335      0.001354     -0.001019
    38   Atom        0.000171      0.000935     -0.001107
    39   Atom        0.001166     -0.000266     -0.000900
    40   Atom        0.002290     -0.000965     -0.001324
    41   Atom        0.001769     -0.000733     -0.001036
    42   Atom        0.000171      0.000935     -0.001107
    43   Atom        0.000072      0.000949     -0.001020
    44   Atom       -0.000358      0.001272     -0.000914
    45   Atom       -0.000358      0.001272     -0.000914
    46   Atom        0.001180     -0.000197     -0.000983
    47   Atom       -0.000335      0.001354     -0.001019
    48   Atom        0.001180     -0.000197     -0.000983
    49   Atom       -0.074774     -0.096956      0.171730
    50   Atom       -0.006981     -0.003566      0.010547
    51   Atom       -0.011872     -0.001276      0.013149
 --------------------------------------------------------
                        XY            XZ            YZ
 --------------------------------------------------------
     1   Atom       -0.010495      0.079586     -0.033874
     2   Atom       -0.003180     -0.001910      0.010433
     3   Atom        0.007041     -0.005974     -0.010341
     4   Atom       -0.000042      0.000084     -0.326305
     5   Atom        0.015392      0.001982      0.002429
     6   Atom        0.005037     -0.000706     -0.001913
     7   Atom        0.002143     -0.000097     -0.000030
[...]
    42   Atom        0.000178      0.000937     -0.001115
    43   Atom        0.000077      0.000949     -0.001026
    44   Atom       -0.000364      0.001276     -0.000911
    45   Atom       -0.000364      0.001276     -0.000911
    46   Atom        0.001194     -0.000181     -0.001013
    47   Atom       -0.000319      0.001365     -0.001046
    48   Atom        0.001194     -0.000181     -0.001013
    49   Atom       -0.065197     -0.090148      0.155345
    50   Atom       -0.007674     -0.002878      0.010552
    51   Atom       -0.011557     -0.001966      0.013524
 --------------------------------------------------------
                        XY            XZ            YZ
 --------------------------------------------------------
     1   Atom       -0.012075      0.080016     -0.035160
     2   Atom       -0.002510     -0.001288      0.009823
     3   Atom        0.006245     -0.005036     -0.010515
     4   Atom        0.000002     -0.000007     -0.337021
     5   Atom        0.015543      0.002012      0.002563
     6   Atom        0.005058     -0.000757     -0.002183
     7   Atom        0.002179     -0.000135     -0.000038
     8   Atom        0.002095      0.000067      0.000114
     9   Atom        0.006147     -0.000218      0.001007
    10   Atom       -0.001028      0.000642      0.000765
    11   Atom       -0.006385     -0.002662     -0.001068
    12   Atom       -0.012878      0.002046      0.001495
    13   Atom       -0.005483     -0.001303      0.000771
    14   Atom       -0.002492      0.000066     -0.000009
    15   Atom       -0.002119     -0.000114      0.000090
    16   Atom        0.005483      0.001303      0.000771
    17   Atom        0.012878     -0.002046      0.001495
    18   Atom        0.006385      0.002662     -0.001068
    19   Atom        0.002119      0.000114      0.000090
    20   Atom        0.002492     -0.000066     -0.000009
    21   Atom        0.000000      0.000000     -0.000434
    22   Atom       -0.006147      0.000218      0.001007
    23   Atom       -0.015543     -0.002012      0.002563
    24   Atom       -0.005058      0.000758     -0.002183
    25   Atom       -0.002179      0.000135     -0.000038
    26   Atom       -0.002095     -0.000067      0.000114
    27   Atom        0.001028     -0.000642      0.000765
    28   Atom       -0.001873     -0.004630      0.000851
    29   Atom        0.001873      0.004630      0.000851
    30   Atom        0.000000      0.000000     -0.000028
    31   Atom        0.000466     -0.000043     -0.000034
    32   Atom       -0.000466      0.000043     -0.000034
    33   Atom        0.001891     -0.000982     -0.000525
    34   Atom        0.001238      0.000244      0.000114
    35   Atom        0.001329     -0.000174     -0.000155
    36   Atom        0.001553     -0.000137     -0.000113
    37   Atom       -0.001596      0.000368     -0.000519
    38   Atom        0.001780      0.000498      0.000586
    39   Atom       -0.001329      0.000174     -0.000155
    40   Atom       -0.001891      0.000982     -0.000525
    41   Atom       -0.001238     -0.000244      0.000114
    42   Atom       -0.001780     -0.000498      0.000586
    43   Atom       -0.001553      0.000137     -0.000113
    44   Atom       -0.001353     -0.000158      0.000185
    45   Atom        0.001353      0.000158      0.000185
    46   Atom       -0.001507     -0.000387      0.000269
    47   Atom        0.001596     -0.000368     -0.000519
    48   Atom        0.001507      0.000387      0.000269
    49   Atom        0.012075     -0.080019     -0.035159
    50   Atom       -0.006245      0.005036     -0.010515
    51   Atom        0.002510      0.001288      0.009823
 --------------------------------------------------------


 ---------------------------------------------------------------------------------
              Anisotropic Spin Dipole Couplings in Principal Axis System
 ---------------------------------------------------------------------------------

       Atom             a.u.   MegaHertz   Gauss  10(-4) cm-1        Axes

              Baa    -0.0952     6.892     2.459     2.299  0.1849  0.9796  0.0784
     1 O(17)  Bbb    -0.0911     6.590     2.352     2.198  0.9338 -0.1502 -0.3247
              Bcc     0.1863   -13.482    -4.811    -4.497  0.3063 -0.1333  0.9426
 
              Baa    -0.0122    -6.534    -2.331    -2.179  0.9534  0.2946 -0.0646
     2 H(1)   Bbb    -0.0062    -3.314    -1.183    -1.106 -0.2921  0.8485 -0.4414
              Bcc     0.0185     9.848     3.514     3.285 -0.0752  0.4397  0.8950
 
              Baa    -0.0122    -6.518    -2.326    -2.174  0.7457 -0.6522 -0.1363
     3 H(1)   Bbb    -0.0062    -3.325    -1.186    -1.109  0.6062  0.5793  0.5449
              Bcc     0.0184     9.843     3.512     3.283 -0.2764 -0.4889  0.8274
 
              Baa    -1.5076  -190.376   -67.931   -63.502  1.0000  0.0000  0.0000
     4 Co(59) Bbb    -1.3321  -168.212   -60.022   -56.110  0.0000  0.9967  0.0811
              Bcc     2.8396   358.588   127.953   119.612  0.0000 -0.0811  0.9967
 
              Baa    -0.0152    -0.586    -0.209    -0.196  0.7472 -0.6645  0.0140
     5 N(14)  Bbb    -0.0015    -0.058    -0.021    -0.019 -0.1310 -0.1266  0.9833
              Bcc     0.0167     0.644     0.230     0.215  0.6516  0.7365  0.1816
 
              Baa    -0.0213    -2.856    -1.019    -0.953  0.0181  0.0558  0.9983
     6 C(13)  Bbb     0.0030     0.407     0.145     0.136  0.9333 -0.3590  0.0032
              Bcc     0.0182     2.449     0.874     0.817  0.3586  0.9317 -0.0585
 
              Baa    -0.0018    -0.241    -0.086    -0.080  0.8308 -0.4827  0.2769
     7 C(13)  Bbb    -0.0014    -0.192    -0.068    -0.064 -0.2280  0.1587  0.9607
              Bcc     0.0032     0.432     0.154     0.144  0.5077  0.8613 -0.0218
 
              Baa    -0.0016    -0.220    -0.079    -0.073 -0.4355  0.7451 -0.5052
     8 C(13)  Bbb    -0.0015    -0.201    -0.072    -0.067 -0.2798  0.4214  0.8626
              Bcc     0.0031     0.421     0.150     0.140  0.8556  0.5170  0.0250
 
              Baa    -0.0343    -4.599    -1.641    -1.534  0.0063 -0.0224  0.9997
     9 C(13)  Bbb     0.0094     1.261     0.450     0.421 -0.4426  0.8964  0.0229
              Bcc     0.0249     3.337     1.191     1.113  0.8967  0.4427  0.0042
 
              Baa    -0.0088    -1.183    -0.422    -0.395  0.9954  0.0785 -0.0548
    10 C(13)  Bbb     0.0036     0.480     0.171     0.160  0.0863 -0.4882  0.8684
              Bcc     0.0052     0.703     0.251     0.234 -0.0414  0.8692  0.4927
 
              Baa    -0.0248    -3.330    -1.188    -1.111  0.0882  0.0394  0.9953
    11 C(13)  Bbb     0.0049     0.658     0.235     0.219  0.8750  0.4744 -0.0963
              Bcc     0.0199     2.672     0.953     0.891 -0.4760  0.8794  0.0074
 
              Baa    -0.0175    -0.675    -0.241    -0.225  0.7967  0.5959 -0.1004
    12 N(14)  Bbb     0.0079     0.304     0.108     0.101  0.0705  0.0733  0.9948
              Bcc     0.0096     0.371     0.132     0.124 -0.6002  0.7997 -0.0164
 
              Baa    -0.0065    -0.873    -0.311    -0.291  0.3253  0.9362 -0.1328
    13 C(13)  Bbb    -0.0044    -0.586    -0.209    -0.195  0.1367  0.0924  0.9863
              Bcc     0.0109     1.458     0.520     0.486  0.9357 -0.3390 -0.0979
 
              Baa    -0.0023    -0.315    -0.112    -0.105  0.4405  0.8973 -0.0280
    14 C(13)  Bbb    -0.0016    -0.216    -0.077    -0.072  0.0021  0.0301  0.9995
              Bcc     0.0040     0.531     0.189     0.177  0.8977 -0.4404  0.0114
 
              Baa    -0.0017    -0.222    -0.079    -0.074  0.8227  0.5585  0.1060
    15 C(13)  Bbb    -0.0012    -0.167    -0.060    -0.056 -0.0687 -0.0874  0.9938
              Bcc     0.0029     0.389     0.139     0.130 -0.5643  0.8249  0.0335
 
              Baa    -0.0065    -0.873    -0.311    -0.291 -0.3253  0.9362 -0.1328
    16 C(13)  Bbb    -0.0044    -0.586    -0.209    -0.195 -0.1367  0.0924  0.9863
              Bcc     0.0109     1.458     0.520     0.486  0.9357  0.3390  0.0979
 
              Baa    -0.0175    -0.675    -0.241    -0.225  0.7967 -0.5959  0.1004
    17 N(14)  Bbb     0.0079     0.304     0.108     0.101 -0.0705  0.0733  0.9948
              Bcc     0.0096     0.371     0.132     0.124  0.6002  0.7997 -0.0164
 
              Baa    -0.0248    -3.330    -1.188    -1.111 -0.0882  0.0394  0.9953
    18 C(13)  Bbb     0.0049     0.658     0.235     0.219  0.8750 -0.4744  0.0963
              Bcc     0.0199     2.672     0.953     0.891  0.4760  0.8794  0.0074
 
              Baa    -0.0017    -0.222    -0.079    -0.074  0.8227 -0.5585 -0.1060
    19 C(13)  Bbb    -0.0012    -0.167    -0.060    -0.056  0.0687 -0.0874  0.9938
              Bcc     0.0029     0.389     0.139     0.130  0.5643  0.8249  0.0335
 
              Baa    -0.0023    -0.315    -0.112    -0.105 -0.4405  0.8973 -0.0280
    20 C(13)  Bbb    -0.0016    -0.216    -0.077    -0.072 -0.0022  0.0301  0.9995
              Bcc     0.0040     0.531     0.189     0.177  0.8977  0.4404 -0.0113
 
              Baa    -0.0087    -1.170    -0.417    -0.390  0.0000  0.9993  0.0380
    21 C(13)  Bbb     0.0027     0.364     0.130     0.121  0.0000 -0.0380  0.9993
              Bcc     0.0060     0.806     0.288     0.269  1.0000  0.0000  0.0000
 
              Baa    -0.0343    -4.599    -1.641    -1.534 -0.0063 -0.0224  0.9997
    22 C(13)  Bbb     0.0094     1.261     0.450     0.421  0.4426  0.8964  0.0229
              Bcc     0.0249     3.337     1.191     1.113  0.8967 -0.4427 -0.0042
 
              Baa    -0.0152    -0.586    -0.209    -0.196  0.7472  0.6645 -0.0140
    23 N(14)  Bbb    -0.0015    -0.058    -0.021    -0.019  0.1310 -0.1266  0.9833
              Bcc     0.0167     0.644     0.230     0.215 -0.6516  0.7365  0.1816
 
              Baa    -0.0213    -2.856    -1.019    -0.953 -0.0181  0.0558  0.9983
    24 C(13)  Bbb     0.0030     0.407     0.145     0.136  0.9333  0.3590 -0.0032
              Bcc     0.0182     2.449     0.874     0.817 -0.3586  0.9317 -0.0585
 
              Baa    -0.0018    -0.241    -0.086    -0.080  0.8308  0.4827 -0.2769
    25 C(13)  Bbb    -0.0014    -0.192    -0.068    -0.064  0.2280  0.1587  0.9606
              Bcc     0.0032     0.432     0.154     0.144 -0.5077  0.8613 -0.0218
 
              Baa    -0.0016    -0.220    -0.079    -0.073  0.4355  0.7451 -0.5052
    26 C(13)  Bbb    -0.0015    -0.201    -0.072    -0.067  0.2798  0.4214  0.8626
              Bcc     0.0031     0.421     0.150     0.140  0.8556 -0.5170 -0.0250
 
              Baa    -0.0088    -1.183    -0.422    -0.395  0.9954 -0.0785  0.0548
    27 C(13)  Bbb     0.0036     0.480     0.171     0.160 -0.0863 -0.4882  0.8685
              Bcc     0.0052     0.703     0.251     0.234  0.0414  0.8692  0.4927
 
              Baa    -0.0046    -2.442    -0.871    -0.814  0.1366  0.9874 -0.0803
    28 H(1)   Bbb    -0.0041    -2.170    -0.774    -0.724  0.4124  0.0170  0.9109
              Bcc     0.0086     4.612     1.646     1.538  0.9007 -0.1576 -0.4048
 
              Baa    -0.0046    -2.442    -0.871    -0.814 -0.1366  0.9874 -0.0803
    29 H(1)   Bbb    -0.0041    -2.170    -0.774    -0.724 -0.4124  0.0170  0.9108
              Bcc     0.0086     4.612     1.646     1.538  0.9007  0.1576  0.4049
 
              Baa    -0.0023    -1.233    -0.440    -0.411  0.0000  0.9996  0.0270
    30 H(1)   Bbb    -0.0013    -0.681    -0.243    -0.227  0.0000 -0.0270  0.9996
              Bcc     0.0036     1.914     0.683     0.638  1.0000  0.0000  0.0000
 
              Baa    -0.0023    -1.230    -0.439    -0.410  0.9960 -0.0779  0.0431
    31 H(1)   Bbb    -0.0014    -0.734    -0.262    -0.245 -0.0424  0.0107  0.9990
              Bcc     0.0037     1.964     0.701     0.655  0.0782  0.9969 -0.0073
 
              Baa    -0.0023    -1.230    -0.439    -0.410  0.9960  0.0779 -0.0431
    32 H(1)   Bbb    -0.0014    -0.734    -0.262    -0.245  0.0424  0.0107  0.9990
              Bcc     0.0037     1.964     0.701     0.655 -0.0782  0.9969 -0.0073
 
              Baa    -0.0018    -0.986    -0.352    -0.329 -0.3511  0.9018  0.2520
    33 H(1)   Bbb    -0.0016    -0.843    -0.301    -0.281  0.3076 -0.1432  0.9407
              Bcc     0.0034     1.828     0.652     0.610  0.8844  0.4078 -0.2271
 
              Baa    -0.0012    -0.664    -0.237    -0.221 -0.3734  0.9249 -0.0716
    34 H(1)   Bbb    -0.0011    -0.566    -0.202    -0.189 -0.1012  0.0361  0.9942
              Bcc     0.0023     1.230     0.439     0.410  0.9221  0.3785  0.0802
 
              Baa    -0.0011    -0.574    -0.205    -0.191 -0.4798  0.8398  0.2538
    35 H(1)   Bbb    -0.0009    -0.479    -0.171    -0.160  0.1970 -0.1788  0.9640
              Bcc     0.0020     1.052     0.375     0.351  0.8550  0.5125 -0.0796
 
              Baa    -0.0011    -0.597    -0.213    -0.199  0.7318 -0.5255  0.4339
    36 H(1)   Bbb    -0.0010    -0.542    -0.193    -0.181 -0.3165  0.3019  0.8993
              Bcc     0.0021     1.139     0.407     0.380  0.6035  0.7955 -0.0546
 
              Baa    -0.0013    -0.692    -0.247    -0.231  0.8394  0.4411 -0.3176
    37 H(1)   Bbb    -0.0011    -0.611    -0.218    -0.204  0.1883  0.3122  0.9312
              Bcc     0.0024     1.303     0.465     0.435 -0.5099  0.8414 -0.1790
 
              Baa    -0.0013    -0.688    -0.245    -0.229 -0.5504  0.2288  0.8029
    38 H(1)   Bbb    -0.0012    -0.667    -0.238    -0.222 -0.5632  0.6082 -0.5594
              Bcc     0.0025     1.355     0.483     0.452  0.6163  0.7601  0.2058
 
              Baa    -0.0011    -0.574    -0.205    -0.191  0.4798  0.8398  0.2538
    39 H(1)   Bbb    -0.0009    -0.479    -0.171    -0.160 -0.1970 -0.1788  0.9640
              Bcc     0.0020     1.052     0.375     0.351  0.8550 -0.5125  0.0796
 
              Baa    -0.0018    -0.986    -0.352    -0.329  0.3511  0.9018  0.2520
    40 H(1)   Bbb    -0.0016    -0.843    -0.301    -0.281 -0.3076 -0.1432  0.9407
              Bcc     0.0034     1.828     0.652     0.610  0.8844 -0.4078  0.2271
 
              Baa    -0.0012    -0.664    -0.237    -0.221  0.3734  0.9249 -0.0716
    41 H(1)   Bbb    -0.0011    -0.566    -0.202    -0.189  0.1012  0.0361  0.9942
              Bcc     0.0023     1.230     0.439     0.410  0.9221 -0.3785 -0.0802
 
              Baa    -0.0013    -0.688    -0.245    -0.229  0.5504  0.2288  0.8029
    42 H(1)   Bbb    -0.0012    -0.667    -0.238    -0.222  0.5632  0.6082 -0.5594
              Bcc     0.0025     1.355     0.483     0.452 -0.6163  0.7601  0.2058
 
              Baa    -0.0011    -0.597    -0.213    -0.199  0.7318  0.5255 -0.4339
    43 H(1)   Bbb    -0.0010    -0.542    -0.193    -0.181  0.3165  0.3019  0.8993
              Bcc     0.0021     1.139     0.407     0.380 -0.6035  0.7955 -0.0546
 
              Baa    -0.0011    -0.607    -0.217    -0.202  0.8576  0.4640  0.2220
    44 H(1)   Bbb    -0.0009    -0.491    -0.175    -0.164 -0.1555 -0.1776  0.9717
              Bcc     0.0021     1.098     0.392     0.366 -0.4903  0.8679  0.0801
 
              Baa    -0.0011    -0.607    -0.217    -0.202  0.8576 -0.4640 -0.2221
    45 H(1)   Bbb    -0.0009    -0.491    -0.175    -0.164  0.1556 -0.1776  0.9717
              Bcc     0.0021     1.098     0.392     0.366  0.4903  0.8679  0.0801
 
              Baa    -0.0012    -0.616    -0.220    -0.205  0.5020  0.8375 -0.2161
    46 H(1)   Bbb    -0.0011    -0.575    -0.205    -0.192  0.2361  0.1077  0.9657
              Bcc     0.0022     1.190     0.425     0.397  0.8320 -0.5358 -0.1436
 
              Baa    -0.0013    -0.692    -0.247    -0.231  0.8394 -0.4411  0.3176
    47 H(1)   Bbb    -0.0011    -0.611    -0.218    -0.204 -0.1883  0.3122  0.9312
              Bcc     0.0024     1.303     0.465     0.435  0.5099  0.8414 -0.1790
 
              Baa    -0.0012    -0.616    -0.220    -0.205 -0.5020  0.8375 -0.2161
    48 H(1)   Bbb    -0.0011    -0.575    -0.205    -0.192 -0.2361  0.1077  0.9657
              Bcc     0.0022     1.190     0.425     0.397  0.8320  0.5358  0.1436
 
              Baa    -0.0952     6.892     2.459     2.299 -0.1849  0.9796  0.0784
    49 O(17)  Bbb    -0.0911     6.590     2.352     2.198  0.9338  0.1502  0.3247
              Bcc     0.1863   -13.482    -4.811    -4.497 -0.3063 -0.1332  0.9426
 
              Baa    -0.0122    -6.518    -2.326    -2.174  0.7457  0.6522  0.1363
    50 H(1)   Bbb    -0.0062    -3.325    -1.186    -1.109  0.6062 -0.5793 -0.5448
              Bcc     0.0184     9.843     3.512     3.283  0.2764 -0.4889  0.8274
 
              Baa    -0.0122    -6.534    -2.331    -2.179  0.9534 -0.2946  0.0647
    51 H(1)   Bbb    -0.0062    -3.314    -1.183    -1.106  0.2921  0.8485 -0.4414
              Bcc     0.0185     9.848     3.514     3.285  0.0752  0.4397  0.8950
 

 ---------------------------------------------------------------------------------

 1\1\GINC-NID00810\FOpt\UTPSSTPSS\6-31G(d)\C19H25Co1N4O2(1+,2)\PARKSJM\
 28-Oct-2015\0\\# tpsstpss/6-31G(d) opt integral=ultrafine scf=tight\\H
 2O.Co.2.Corrin.H2O\\1,2\O,-0.1798811399,0.2021784034,-2.3069919532\H,0
 .0680686828,-0.6144606567,-2.7840247196\H,0.395540664,0.8991840805,-2.
 6799823525\Co,-0.0284036187,0.0000064978,-0.0000122405\N,-1.3236413028
 ,-1.4152549279,-0.0333148229\C,-1.0372585828,-2.773655619,0.0395929209
 \C,-2.3088030772,-3.5927050173,0.1745124013\C,-3.4244470965,-2.5566610
 103,-0.0597553479\C,-2.6765321098,-1.2386625406,-0.025457363\C,0.22734
 23802,-3.3239313621,0.0218732781\C,1.4085024238,-2.5464217046,-0.09206
 89717\N,1.3688492392,-1.2239775425,-0.143290673\C,2.7329688336,-0.6671
 997878,-0.3709635259\C,3.6736230244,-1.8020186768,0.0761106813\C,2.830
 1757574,-3.0713152532,-0.2058058661\C,2.7329821082,0.6671708649,0.3709
 136814\N,1.3688690375,1.2239692089,0.1432526301\C,1.4085415106,2.54641
 29993,0.092032912\C,2.8302237002,3.0712848158,0.2057593242\C,3.6736493
 196,1.8019761058,-0.0761674857\C,-3.3117977017,0.0000310685,0.00001232
 47\C,-2.6765131127,1.2387148874,0.0254712209\N,-1.3236190139,1.4152862
 624,0.0333053847\C,-1.0372169762,2.7736827949,-0.0396104569\C,-2.30875
 12042,3.5927483476,-0.1745266308\C,-3.4244054367,2.556725741,0.0597858
 047\C,0.2273921411,3.3239402581,-0.0219010458\H,2.8463469284,-0.468368
 3342,-1.451305827\H,2.8463665328,0.4683373911,1.4512549939\H,-4.399915
 2316,0.0000391639,0.0000221567\H,0.3201606273,4.4052033288,-0.09143452
 28\H,0.3200954755,-4.4051959413,0.0914036447\H,3.8732563707,1.71634737
 73,-1.1539550802\H,4.6334959072,1.7957665716,0.4511868339\H,-4.2186402
 308,-2.5923187844,0.6956553889\H,3.030518884,3.8944371701,-0.491100235
 5\H,-2.3660811394,4.0255656298,-1.1835667116\H,3.0080433331,3.45786614
 52,1.2219381084\H,-4.2186258017,2.592393051,-0.6955956094\H,3.87324176
 07,-1.7163910006,1.1538961759\H,4.633464674,-1.7958245442,-0.451252800
 4\H,3.0079810015,-3.4579021998,-1.2219850004\H,3.0304642148,-3.8944687
 186,0.4910543054\H,-2.329991526,4.4271492154,0.5365071518\H,-2.3300676
 708,-4.4270857532,-0.5365445404\H,-3.9050271386,2.6875066532,1.0405547
 828\H,-2.3661213023,-4.0255505984,1.1835406872\H,-3.9051080722,-2.6874
 2742,-1.0405067258\O,-0.1798733323,-0.2021580886,2.3069612251\H,0.3955
 417831,-0.8991663208,2.6799573104\H,0.0680815031,0.614481769,2.7839901
 794\\Version=AS64L-G09RevD.01\State=2-A\HF=-2491.344456\S2=0.764217\S2
 -1=0.\S2A=0.750152\RMSD=8.214e-09\RMSF=4.494e-06\Dipole=0.7307071,-0.0
 000043,0.0000071\Quadrupole=5.7845131,5.7000738,-11.484587,0.0000154,-
 0.0001669,0.2637599\PG=C01 [X(C19H25Co1N4O2)]\\@


     "IF I COULD JUST GET IT ON PAPER"
 LIFE AND INK, THEY RUN OUT AT THE SAME TIME,
 OR SO SAID MY OLD FRIEND THE SQUID.
     -- JIMMY BUFFETT, 1981
 Job cpu time:       0 days  0 hours  4 minutes  0.9 seconds.
 File lengths (MBytes):  RWF=    229 Int=      0 D2E=      0 Chk=     22 Scr=      1
 Normal termination of Gaussian 09 at Wed Oct 28 20:43:23 2015.
