 Entering GApplication 60301743 resources: utime ~85944s, stime ~1125s, Rss ~1510296, inblocks ~45450447, outblocks ~9913196
ss.smd_bondi.com
 Output=/global/homes/p/parksjm/tpss/H2O.Co.2.Corrin.H2O/H2O.Co.2.Corrin.H2O.tpss.6311pgss.smd_bondi.log
 Initial command:
 /usr/common/usg/g09/d1/g09/l1.exe "/scratch/scratchdirs/parksjm/g09/13505281.hopque01/Gau-717.inp" -scrdir="/scratch/scratchdirs/parksjm/g09/13505281.hopque01/"
 Entering Link 1 = /usr/common/usg/g09/d1/g09/l1.exe PID=       718.
  
 Copyright (c) 1988,1990,1992,1993,1995,1998,2003,2009,2013,
            Gaussian, Inc.  All Rights Reserved.
  
 This is part of the Gaussian(R) 09 program.  It is based on
 the Gaussian(R) 03 system (copyright 2003, Gaussian, Inc.),
 the Gaussian(R) 98 system (copyright 1998, Gaussian, Inc.),
 the Gaussian(R) 94 system (copyright 1995, Gaussian, Inc.),
 the Gaussian 92(TM) system (copyright 1992, Gaussian, Inc.),
 the Gaussian 90(TM) system (copyright 1990, Gaussian, Inc.),
 the Gaussian 88(TM) system (copyright 1988, Gaussian, Inc.),
 the Gaussian 86(TM) system (copyright 1986, Carnegie Mellon
 University), and the Gaussian 82(TM) system (copyright 1983,
 Carnegie Mellon University). Gaussian is a federally registered
 trademark of Gaussian, Inc.
  
 This software contains proprietary and confidential information,
 including trade secrets, belonging to Gaussian, Inc.
  
 This software is provided under written license and may be
 used, copied, transmitted, or stored only in accord with that
 written license.
  
 The following legend is applicable only to US Government
 contracts under FAR:
  
                    RESTRICTED RIGHTS LEGEND
  
 Use, reproduction and disclosure by the US Government is
 subject to restrictions as set forth in subparagraphs (a)
 and (c) of the Commercial Computer Software - Restricted
 Rights clause in FAR 52.227-19.
  
 Gaussian, Inc.
 340 Quinnipiac St., Bldg. 40, Wallingford CT 06492
  
  
 ---------------------------------------------------------------
 Warning -- This program may not be used in any manner that
 competes with the business of Gaussian, Inc. or will provide
 assistance to any competitor of Gaussian, Inc.  The licensee
 of this program is prohibited from giving any competitor of
 Gaussian, Inc. access to this program.  By using this program,
 the user acknowledges that Gaussian, Inc. is engaged in the
 business of creating and licensing software in the field of
 computational chemistry and represents and warrants to the
 licensee that it is not a competitor of Gaussian, Inc. and that
 it will not use this program in any manner prohibited above.
 ---------------------------------------------------------------
  

 Cite this work as:
 Gaussian 09, Revision D.01,
 M. J. Frisch, G. W. Trucks, H. B. Schlegel, G. E. Scuseria, 
 M. A. Robb, J. R. Cheeseman, G. Scalmani, V. Barone, B. Mennucci, 
 G. A. Petersson, H. Nakatsuji, M. Caricato, X. Li, H. P. Hratchian, 
 A. F. Izmaylov, J. Bloino, G. Zheng, J. L. Sonnenberg, M. Hada, 
 M. Ehara, K. Toyota, R. Fukuda, J. Hasegawa, M. Ishida, T. Nakajima, 
 Y. Honda, O. Kitao, H. Nakai, T. Vreven, J. A. Montgomery, Jr., 
 J. E. Peralta, F. Ogliaro, M. Bearpark, J. J. Heyd, E. Brothers, 
 K. N. Kudin, V. N. Staroverov, T. Keith, R. Kobayashi, J. Normand, 
 K. Raghavachari, A. Rendell, J. C. Burant, S. S. Iyengar, J. Tomasi, 
 M. Cossi, N. Rega, J. M. Millam, M. Klene, J. E. Knox, J. B. Cross, 
 V. Bakken, C. Adamo, J. Jaramillo, R. Gomperts, R. E. Stratmann, 
 O. Yazyev, A. J. Austin, R. Cammi, C. Pomelli, J. W. Ochterski, 
 R. L. Martin, K. Morokuma, V. G. Zakrzewski, G. A. Voth, 
 P. Salvador, J. J. Dannenberg, S. Dapprich, A. D. Daniels, 
 O. Farkas, J. B. Foresman, J. V. Ortiz, J. Cioslowski, 
 and D. J. Fox, Gaussian, Inc., Wallingford CT, 2013.
 
 ******************************************
 Gaussian 09:  AS64L-G09RevD.01 24-Apr-2013
                29-Oct-2015 
 ******************************************
 %nproc=24
 Will use up to   24 processors via shared memory.
 %chk=H2O.Co.2.Corrin.H2O.chk
 %mem=7000mb
 ----------------------------------------------------
 # tpsstpss/6-311+G(d,p) integral=ultrafine scf=tight
 ----------------------------------------------------
 1/38=1/1;
 2/12=2,17=6,18=5,40=1/2;
 3/5=4,6=6,7=111,11=2,16=1,25=1,30=1,74=2523,75=-5/1,2,3;
 4//1;
 5/5=2,32=2,38=5/2;
 6/7=2,8=2,9=2,10=2,28=1/1;
 99/5=1,9=1/99;
 -------------------
 H2O.Co.2.Corrin.H2O
 -------------------
 Symbolic Z-matrix:
 Charge =  1 Multiplicity = 2
 O                    -0.18243   0.20627  -2.30662 
 H                     0.06553  -0.60952  -2.7851 
 H                     0.39299   0.90394  -2.67837 
 Co                   -0.03096   0.       0. 
 N                    -1.32619  -1.41521  -0.03582 
 C                    -1.0398   -2.77373   0.03467 
 C                    -2.31134  -3.59303   0.16813 
 C                    -3.42699  -2.55658  -0.0643 
 C                    -2.67909  -1.23864  -0.02766 
 C                     0.2248   -3.32397   0.01598 
 C                     1.40596  -2.54625  -0.09657 
 N                     1.3663   -1.22372  -0.14545 
 C                     2.73042  -0.66653  -0.37212 
 C                     3.67107  -1.80214   0.07294 
 C                     2.82763  -3.07094  -0.21123 
 C                     2.73042   0.66652   0.37213 
 N                     1.3663    1.22371   0.14545 
 C                     1.40597   2.54625   0.09657 
 C                     2.82765   3.07092   0.21124 
 C                     3.67108   1.80212  -0.07294 
 C                    -3.31436   0.00001   0. 
 C                    -2.67908   1.23865   0.02767 
 N                    -1.32619   1.41521   0.03582 
 C                    -1.03979   2.77374  -0.03468 
 C                    -2.31133   3.59303  -0.16815 
 C                    -3.42698   2.55659   0.06432 
 C                     0.22482   3.32397  -0.01599 
 H                     2.8438   -0.46578  -1.45211 
 H                     2.8438    0.46577   1.45211 
 H                    -4.40247   0.00001   0.00001 
 H                     0.31758   4.40535  -0.0836 
 H                     0.31756  -4.40536   0.0836 
 H                     3.8707    1.71841  -1.15087 
 H                     4.63093   1.79498   0.45441 
 H                    -4.22119  -2.59358   0.69104 
 H                     3.02794   3.89531  -0.48416 
 H                    -2.36865   4.02764  -1.17642 
 H                     3.00546   3.4557    1.22811 
 H                    -4.22119   2.5936   -0.69101 
 H                     3.87069  -1.71842   1.15088 
 H                     4.63092  -1.795    -0.4544 
 H                     3.00545  -3.45572  -1.22809 
 H                     3.02792  -3.89533   0.48417 
 H                    -2.33258   4.42617   0.54437 
 H                    -2.3326   -4.42614  -0.54441 
 H                    -3.90761   2.68563   1.04531 
 H                    -2.36867  -4.02766   1.17639 
 H                    -3.90765  -2.6856   -1.04529 
 O                    -0.18245  -0.20626   2.30661 
 H                     0.39297  -0.90393   2.67837 
 H                     0.0655    0.60953   2.78509 
 
 Stoichiometry    C19H25CoN4O2(1+,2)
 Framework group  C1[X(C19H25CoN4O2)]
 Deg. of freedom   147
 Full point group                 C1      NOp   1
 Largest Abelian subgroup         C1      NOp   1
 Largest concise Abelian subgroup C1      NOp   1
                         Standard orientation:                         
 ---------------------------------------------------------------------
 Center     Atomic      Atomic             Coordinates (Angstroms)
 Number     Number       Type             X           Y           Z
 ---------------------------------------------------------------------
      1          8           0       -0.182428   -0.206267    2.306619
      2          1           0        0.065529    0.609522    2.785100
      3          1           0        0.392992   -0.903937    2.678368
      4         27           0       -0.030963    0.000000    0.000001
      5          7           0       -1.326193    1.415207    0.035824
      6          6           0       -1.039804    2.773733   -0.034673
      7          6           0       -2.311345    3.593027   -0.168131
      8          6           0       -3.426993    2.556574    0.064304
      9          6           0       -2.679085    1.238635    0.027661
     10          6           0        0.224800    3.323970   -0.015984
     11          6           0        1.405956    2.546253    0.096571
     12          7           0        1.366297    1.223720    0.145445
     13          6           0        2.730415    0.666533    0.372121
     14          6           0        3.671073    1.802139   -0.072943
     15          6           0        2.827633    3.070937    0.211231
     16          6           0        2.730417   -0.666518   -0.372125
     17          7           0        1.366303   -1.223714   -0.145445
     18          6           0        1.405969   -2.546247   -0.096574
     19          6           0        2.827648   -3.070922   -0.211240
     20          6           0        3.671081   -1.802120    0.072935
     21          6           0       -3.314357   -0.000008   -0.000004
     22          6           0       -2.679079   -1.238648   -0.027666
     23          7           0       -1.326186   -1.415212   -0.035822
     24          6           0       -1.039789   -2.773737    0.034680
     25          6           0       -2.311327   -3.593035    0.168149
     26          6           0       -3.426977   -2.556592   -0.064317
     27          6           0        0.224817   -3.323969    0.015986
     28          1           0        2.843799    0.465783    1.452107
     29          1           0        2.843797   -0.465767   -1.452112
     30          1           0       -4.402474   -0.000011   -0.000008
     31          1           0        0.317580   -4.405354    0.083599
     32          1           0        0.317558    4.405356   -0.083595
     33          1           0        3.870695   -1.718407    1.150872
     34          1           0        4.630925   -1.794980   -0.454413
     35          1           0       -4.221191    2.593577   -0.691038
     36          1           0        3.027943   -3.895312    0.484156
     37          1           0       -2.368653   -4.027643    1.176420
     38          1           0        3.005460   -3.455699   -1.228105
     39          1           0       -4.221193   -2.593597    0.691005
     40          1           0        3.870685    1.718424   -1.150880
     41          1           0        4.630918    1.795004    0.454403
     42          1           0        3.005446    3.455719    1.228094
     43          1           0        3.027922    3.895326   -0.484167
     44          1           0       -2.332576   -4.426172   -0.544365
     45          1           0       -2.332601    4.426144    0.544407
     46          1           0       -3.907605   -2.685629   -1.045314
     47          1           0       -2.368667    4.027663   -1.176388
     48          1           0       -3.907648    2.685601    1.045288
     49          8           0       -0.182445    0.206261   -2.306609
     50          1           0        0.392972    0.903928   -2.678370
     51          1           0        0.065503   -0.609532   -2.785088
 ---------------------------------------------------------------------
 Rotational constants (GHZ):      0.2583042      0.2471374      0.1422149
 Standard basis: 6-311+G(d,p) (5D, 7F)
 There are   790 symmetry adapted cartesian basis functions of A   symmetry.
 There are   758 symmetry adapted basis functions of A   symmetry.
   758 basis functions,  1194 primitive gaussians,   790 cartesian basis functions
   105 alpha electrons      104 beta electrons
       nuclear repulsion energy      3209.2859904153 Hartrees.
 NAtoms=   51 NActive=   51 NUniq=   51 SFac= 1.00D+00 NAtFMM=   60 NAOKFM=F Big=F
 Integral buffers will be    131072 words long.
 Raffenetti 2 integral format.
 Two-electron integral symmetry is turned on.
 One-electron integrals computed using PRISM.
 NBasis=   758 RedAO= T EigKep=  1.60D-06  NBF=   758
 NBsUse=   753 1.00D-06 EigRej=  9.73D-07 NBFU=   753
 ExpMin= 1.33D-02 ExpMax= 2.71D+05 ExpMxC= 9.06D+03 IAcc=3 IRadAn=         5 AccDes= 0.00D+00
 Harris functional with IExCor= 1009 and IRadAn=       5 diagonalized for initial guess.
 HarFok:  IExCor= 1009 AccDes= 0.00D+00 IRadAn=         5 IDoV= 1 UseB2=F ITyADJ=14
 ICtDFT=  3500011 ScaDFX=  1.000000  1.000000  1.000000  1.000000
 FoFCou: FMM=F IPFlag=           0 FMFlag=      100000 FMFlg1=           0
         NFxFlg=           0 DoJE=T BraDBF=F KetDBF=T FulRan=T
         wScrn=  0.000000 ICntrl=     500 IOpCl=  0 I1Cent=   200000004 NGrid=           0
         NMat0=    1 NMatS0=      1 NMatT0=    0 NMatD0=    1 NMtDS0=    0 NMtDT0=    0
 Petite list used in FoFCou.
 Initial guess <Sx>= 0.0000 <Sy>= 0.0000 <Sz>= 0.5000 <S**2>= 0.7500 S= 0.5000
 Requested convergence on RMS density matrix=1.00D-08 within 128 cycles.
 Requested convergence on MAX density matrix=1.00D-06.
 Requested convergence on             energy=1.00D-06.
 No special actions if energy rises.
 EnCoef did   100 forward-backward iterations
 EnCoef did     4 forward-backward iterations
 EnCoef did     9 forward-backward iterations
 Restarting incremental Fock formation.
 SCF Done:  E(UTPSS-TPSS) =  -2491.76480339     A.U. after   23 cycles
            NFock= 23  Conv=0.88D-08     -V/T= 2.0022
 <Sx>= 0.0000 <Sy>= 0.0000 <Sz>= 0.5000 <S**2>= 0.7607 S= 0.5053
 <L.S>= 0.000000000000E+00
 Annihilation of the first spin contaminant:
 S**2 before annihilation     0.7607,   after     0.7501

 **********************************************************************

            Population analysis using the SCF density.

 **********************************************************************

 Orbital symmetries:
 Alpha Orbitals:
       Occupied  (A) (A) (A) (A) (A) (A) (A) (A) (A) (A) (A) (A)
                 (A) (A) (A) (A) (A) (A) (A) (A) (A) (A) (A) (A)
                 (A) (A) (A) (A) (A) (A) (A) (A) (A) (A) (A) (A)
                 (A) (A) (A) (A) (A) (A) (A) (A) (A) (A) (A) (A)
                 (A) (A) (A) (A) (A) (A) (A) (A) (A) (A) (A) (A)
                 (A) (A) (A) (A) (A) (A) (A) (A) (A) (A) (A) (A)
                 (A) (A) (A) (A) (A) (A) (A) (A) (A) (A) (A) (A)
                 (A) (A) (A) (A) (A) (A) (A) (A) (A) (A) (A) (A)
                 (A) (A) (A) (A) (A) (A) (A) (A) (A)
       Virtual   (A) (A) (A) (A) (A) (A) (A) (A) (A) (A) (A) (A)
                 (A) (A) (A) (A) (A) (A) (A) (A) (A) (A) (A) (A)
                 (A) (A) (A) (A) (A) (A) (A) (A) (A) (A) (A) (A)
                 (A) (A) (A) (A) (A) (A) (A) (A) (A) (A) (A) (A)
                 (A) (A) (A) (A) (A) (A) (A) (A) (A) (A) (A) (A)
                 (A) (A) (A) (A) (A) (A) (A) (A) (A) (A) (A) (A)
                 (A) (A) (A) (A) (A) (A) (A) (A) (A) (A) (A) (A)
                 (A) (A) (A) (A) (A) (A) (A) (A) (A) (A) (A) (A)
                 (A) (A) (A) (A) (A) (A) (A) (A) (A) (A) (A) (A)
                 (A) (A) (A) (A) (A) (A) (A) (A) (A) (A) (A) (A)
                 (A) (A) (A) (A) (A) (A) (A) (A) (A) (A) (A) (A)
                 (A) (A) (A) (A) (A) (A) (A) (A) (A) (A) (A) (A)
                 (A) (A) (A) (A) (A) (A) (A) (A) (A) (A) (A) (A)
                 (A) (A) (A) (A) (A) (A) (A) (A) (A) (A) (A) (A)
                 (A) (A) (A) (A) (A) (A) (A) (A) (A) (A) (A) (A)
                 (A) (A) (A) (A) (A) (A) (A) (A) (A) (A) (A) (A)
                 (A) (A) (A) (A) (A) (A) (A) (A) (A) (A) (A) (A)
                 (A) (A) (A) (A) (A) (A) (A) (A) (A) (A) (A) (A)
                 (A) (A) (A) (A) (A) (A) (A) (A) (A) (A) (A) (A)
                 (A) (A) (A) (A) (A) (A) (A) (A) (A) (A) (A) (A)
                 (A) (A) (A) (A) (A) (A) (A) (A) (A) (A) (A) (A)
                 (A) (A) (A) (A) (A) (A) (A) (A) (A) (A) (A) (A)
                 (A) (A) (A) (A) (A) (A) (A) (A) (A) (A) (A) (A)
                 (A) (A) (A) (A) (A) (A) (A) (A) (A) (A) (A) (A)
                 (A) (A) (A) (A) (A) (A) (A) (A) (A) (A) (A) (A)
                 (A) (A) (A) (A) (A) (A) (A) (A) (A) (A) (A) (A)
                 (A) (A) (A) (A) (A) (A) (A) (A) (A) (A) (A) (A)
                 (A) (A) (A) (A) (A) (A) (A) (A) (A) (A) (A) (A)
                 (A) (A) (A) (A) (A) (A) (A) (A) (A) (A) (A) (A)
                 (A) (A) (A) (A) (A) (A) (A) (A) (A) (A) (A) (A)
                 (A) (A) (A) (A) (A) (A) (A) (A) (A) (A) (A) (A)
                 (A) (A) (A) (A) (A) (A) (A) (A) (A) (A) (A) (A)
                 (A) (A) (A) (A) (A) (A) (A) (A) (A) (A) (A) (A)
                 (A) (A) (A) (A) (A) (A) (A) (A) (A) (A) (A) (A)
                 (A) (A) (A) (A) (A) (A) (A) (A) (A) (A) (A) (A)
                 (A) (A) (A) (A) (A) (A) (A) (A) (A) (A) (A) (A)
                 (A) (A) (A) (A) (A) (A) (A) (A) (A) (A) (A) (A)
                 (A) (A) (A) (A) (A) (A) (A) (A) (A) (A) (A) (A)
                 (A) (A) (A) (A) (A) (A) (A) (A) (A) (A) (A) (A)
                 (A) (A) (A) (A) (A) (A) (A) (A) (A) (A) (A) (A)
                 (A) (A) (A) (A) (A) (A) (A) (A) (A) (A) (A) (A)
                 (A) (A) (A) (A) (A) (A) (A) (A) (A) (A) (A) (A)
                 (A) (A) (A) (A) (A) (A) (A) (A) (A) (A) (A) (A)
                 (A) (A) (A) (A) (A) (A) (A) (A) (A) (A) (A) (A)
                 (A) (A) (A) (A) (A) (A) (A) (A) (A) (A) (A) (A)
                 (A) (A) (A) (A) (A) (A) (A) (A) (A) (A) (A) (A)
                 (A) (A) (A) (A) (A) (A) (A) (A) (A) (A) (A) (A)
                 (A) (A) (A) (A) (A) (A) (A) (A) (A) (A) (A) (A)
                 (A) (A) (A) (A) (A) (A) (A) (A) (A) (A) (A) (A)
                 (A) (A) (A) (A) (A) (A) (A) (A) (A) (A) (A) (A)
                 (A) (A) (A) (A) (A) (A) (A) (A) (A) (A) (A) (A)
                 (A) (A) (A) (A) (A) (A) (A) (A) (A) (A) (A) (A)
                 (A) (A) (A) (A) (A) (A) (A) (A) (A) (A) (A) (A)
                 (A) (A) (A) (A) (A) (A) (A) (A) (A) (A) (A) (A)
 Beta  Orbitals:
       Occupied  (A) (A) (A) (A) (A) (A) (A) (A) (A) (A) (A) (A)
                 (A) (A) (A) (A) (A) (A) (A) (A) (A) (A) (A) (A)
                 (A) (A) (A) (A) (A) (A) (A) (A) (A) (A) (A) (A)
                 (A) (A) (A) (A) (A) (A) (A) (A) (A) (A) (A) (A)
                 (A) (A) (A) (A) (A) (A) (A) (A) (A) (A) (A) (A)
                 (A) (A) (A) (A) (A) (A) (A) (A) (A) (A) (A) (A)
                 (A) (A) (A) (A) (A) (A) (A) (A) (A) (A) (A) (A)
                 (A) (A) (A) (A) (A) (A) (A) (A) (A) (A) (A) (A)
                 (A) (A) (A) (A) (A) (A) (A) (A)
       Virtual   (A) (A) (A) (A) (A) (A) (A) (A) (A) (A) (A) (A)
                 (A) (A) (A) (A) (A) (A) (A) (A) (A) (A) (A) (A)
                 (A) (A) (A) (A) (A) (A) (A) (A) (A) (A) (A) (A)
                 (A) (A) (A) (A) (A) (A) (A) (A) (A) (A) (A) (A)
                 (A) (A) (A) (A) (A) (A) (A) (A) (A) (A) (A) (A)
                 (A) (A) (A) (A) (A) (A) (A) (A) (A) (A) (A) (A)
                 (A) (A) (A) (A) (A) (A) (A) (A) (A) (A) (A) (A)
                 (A) (A) (A) (A) (A) (A) (A) (A) (A) (A) (A) (A)
                 (A) (A) (A) (A) (A) (A) (A) (A) (A) (A) (A) (A)
                 (A) (A) (A) (A) (A) (A) (A) (A) (A) (A) (A) (A)
                 (A) (A) (A) (A) (A) (A) (A) (A) (A) (A) (A) (A)
                 (A) (A) (A) (A) (A) (A) (A) (A) (A) (A) (A) (A)
                 (A) (A) (A) (A) (A) (A) (A) (A) (A) (A) (A) (A)
                 (A) (A) (A) (A) (A) (A) (A) (A) (A) (A) (A) (A)
                 (A) (A) (A) (A) (A) (A) (A) (A) (A) (A) (A) (A)
                 (A) (A) (A) (A) (A) (A) (A) (A) (A) (A) (A) (A)
                 (A) (A) (A) (A) (A) (A) (A) (A) (A) (A) (A) (A)
                 (A) (A) (A) (A) (A) (A) (A) (A) (A) (A) (A) (A)
                 (A) (A) (A) (A) (A) (A) (A) (A) (A) (A) (A) (A)
                 (A) (A) (A) (A) (A) (A) (A) (A) (A) (A) (A) (A)
                 (A) (A) (A) (A) (A) (A) (A) (A) (A) (A) (A) (A)
                 (A) (A) (A) (A) (A) (A) (A) (A) (A) (A) (A) (A)
                 (A) (A) (A) (A) (A) (A) (A) (A) (A) (A) (A) (A)
                 (A) (A) (A) (A) (A) (A) (A) (A) (A) (A) (A) (A)
                 (A) (A) (A) (A) (A) (A) (A) (A) (A) (A) (A) (A)
                 (A) (A) (A) (A) (A) (A) (A) (A) (A) (A) (A) (A)
                 (A) (A) (A) (A) (A) (A) (A) (A) (A) (A) (A) (A)
                 (A) (A) (A) (A) (A) (A) (A) (A) (A) (A) (A) (A)
                 (A) (A) (A) (A) (A) (A) (A) (A) (A) (A) (A) (A)
                 (A) (A) (A) (A) (A) (A) (A) (A) (A) (A) (A) (A)
                 (A) (A) (A) (A) (A) (A) (A) (A) (A) (A) (A) (A)
                 (A) (A) (A) (A) (A) (A) (A) (A) (A) (A) (A) (A)
                 (A) (A) (A) (A) (A) (A) (A) (A) (A) (A) (A) (A)
                 (A) (A) (A) (A) (A) (A) (A) (A) (A) (A) (A) (A)
                 (A) (A) (A) (A) (A) (A) (A) (A) (A) (A) (A) (A)
                 (A) (A) (A) (A) (A) (A) (A) (A) (A) (A) (A) (A)
                 (A) (A) (A) (A) (A) (A) (A) (A) (A) (A) (A) (A)
                 (A) (A) (A) (A) (A) (A) (A) (A) (A) (A) (A) (A)
                 (A) (A) (A) (A) (A) (A) (A) (A) (A) (A) (A) (A)
                 (A) (A) (A) (A) (A) (A) (A) (A) (A) (A) (A) (A)
                 (A) (A) (A) (A) (A) (A) (A) (A) (A) (A) (A) (A)
                 (A) (A) (A) (A) (A) (A) (A) (A) (A) (A) (A) (A)
                 (A) (A) (A) (A) (A) (A) (A) (A) (A) (A) (A) (A)
                 (A) (A) (A) (A) (A) (A) (A) (A) (A) (A) (A) (A)
                 (A) (A) (A) (A) (A) (A) (A) (A) (A) (A) (A) (A)
                 (A) (A) (A) (A) (A) (A) (A) (A) (A) (A) (A) (A)
                 (A) (A) (A) (A) (A) (A) (A) (A) (A) (A) (A) (A)
                 (A) (A) (A) (A) (A) (A) (A) (A) (A) (A) (A) (A)
                 (A) (A) (A) (A) (A) (A) (A) (A) (A) (A) (A) (A)
                 (A) (A) (A) (A) (A) (A) (A) (A) (A) (A) (A) (A)
                 (A) (A) (A) (A) (A) (A) (A) (A) (A) (A) (A) (A)
                 (A) (A) (A) (A) (A) (A) (A) (A) (A) (A) (A) (A)
                 (A) (A) (A) (A) (A) (A) (A) (A) (A) (A) (A) (A)
                 (A) (A) (A) (A) (A) (A) (A) (A) (A) (A) (A) (A)
                 (A)
 The electronic state is 2-A.
 Alpha  occ. eigenvalues -- -276.74086 -32.53627 -28.20989 -28.20934 -28.20611
 Alpha  occ. eigenvalues --  -19.01759 -19.01759 -14.22912 -14.22912 -14.22192
 Alpha  occ. eigenvalues --  -14.22191 -10.14097 -10.14097 -10.14086 -10.14085
 Alpha  occ. eigenvalues --  -10.13892 -10.13892 -10.13554 -10.13541 -10.10528
 Alpha  occ. eigenvalues --  -10.10528 -10.10144 -10.10144 -10.09994 -10.09994
 Alpha  occ. eigenvalues --  -10.09923 -10.09923 -10.08877 -10.08876 -10.08520
 Alpha  occ. eigenvalues --   -3.70358  -2.40826  -2.40637  -2.40625  -1.07468
 Alpha  occ. eigenvalues --   -1.07420  -1.01111  -0.99838  -0.99620  -0.97938
 Alpha  occ. eigenvalues --   -0.86492  -0.83324  -0.83166  -0.82639  -0.82109
 Alpha  occ. eigenvalues --   -0.82078  -0.81348  -0.76997  -0.76236  -0.70730
 Alpha  occ. eigenvalues --   -0.69574  -0.67775  -0.65193  -0.65131  -0.64225
 Alpha  occ. eigenvalues --   -0.61962  -0.61381  -0.61090  -0.61023  -0.59785
 Alpha  occ. eigenvalues --   -0.57582  -0.56860  -0.56644  -0.55857  -0.54829
 Alpha  occ. eigenvalues --   -0.54156  -0.53478  -0.52959  -0.52314  -0.50144
 Alpha  occ. eigenvalues --   -0.49485  -0.49077  -0.48748  -0.48059  -0.47043
 Alpha  occ. eigenvalues --   -0.46766  -0.46328  -0.45770  -0.45151  -0.45118
 Alpha  occ. eigenvalues --   -0.44995  -0.44965  -0.44676  -0.44333  -0.43912
 Alpha  occ. eigenvalues --   -0.43707  -0.42795  -0.42584  -0.42196  -0.41884
 Alpha  occ. eigenvalues --   -0.41131  -0.40998  -0.40956  -0.40553  -0.39334
 Alpha  occ. eigenvalues --   -0.38507  -0.38417  -0.37642  -0.34622  -0.32894
 Alpha  occ. eigenvalues --   -0.31183  -0.29253  -0.29153  -0.28104  -0.27931
 Alpha virt. eigenvalues --   -0.20043  -0.17615  -0.16809  -0.14408  -0.13207
 Alpha virt. eigenvalues --   -0.12554  -0.09817  -0.09205  -0.08375  -0.08233
 Alpha virt. eigenvalues --   -0.08067  -0.08055  -0.07758  -0.07730  -0.06891
 Alpha virt. eigenvalues --   -0.06165  -0.06130  -0.05793  -0.05503  -0.05097
 Alpha virt. eigenvalues --   -0.04579  -0.04412  -0.03912  -0.03303  -0.03282
 Alpha virt. eigenvalues --   -0.03165  -0.02885  -0.02326  -0.02228  -0.01858
 Alpha virt. eigenvalues --   -0.01686  -0.01319  -0.01197  -0.01109  -0.00495
 Alpha virt. eigenvalues --   -0.00389  -0.00341   0.01301   0.01331   0.01623
 Alpha virt. eigenvalues --    0.01745   0.01938   0.02375   0.02395   0.02752
 Alpha virt. eigenvalues --    0.02976   0.03387   0.03639   0.03840   0.04157
 Alpha virt. eigenvalues --    0.04242   0.04945   0.05033   0.05223   0.05751
 Alpha virt. eigenvalues --    0.05803   0.05875   0.05890   0.06056   0.06340
 Alpha virt. eigenvalues --    0.06868   0.07286   0.07367   0.07965   0.08146
 Alpha virt. eigenvalues --    0.08207   0.08817   0.08904   0.08974   0.09161
 Alpha virt. eigenvalues --    0.09425   0.09499   0.09667   0.09674   0.10432
 Alpha virt. eigenvalues --    0.10433   0.10496   0.10679   0.10950   0.11336
 Alpha virt. eigenvalues --    0.11569   0.11982   0.12064   0.12172   0.12634
 Alpha virt. eigenvalues --    0.12650   0.12950   0.13087   0.13708   0.13840
 Alpha virt. eigenvalues --    0.14100   0.14711   0.14733   0.15009   0.15226
 Alpha virt. eigenvalues --    0.15352   0.15623   0.15664   0.15844   0.15926
 Alpha virt. eigenvalues --    0.16699   0.16752   0.17011   0.17064   0.17617
 Alpha virt. eigenvalues --    0.17672   0.17782   0.18084   0.18329   0.18587
 Alpha virt. eigenvalues --    0.18642   0.19104   0.19311   0.19507   0.19512
 Alpha virt. eigenvalues --    0.19865   0.20230   0.20261   0.20458   0.20502
 Alpha virt. eigenvalues --    0.20856   0.21330   0.21460   0.21911   0.22425
 Alpha virt. eigenvalues --    0.22478   0.22917   0.23249   0.23351   0.23531
 Alpha virt. eigenvalues --    0.23679   0.24326   0.24401   0.25346   0.25383
 Alpha virt. eigenvalues --    0.25877   0.25929   0.26228   0.26407   0.27259
 Alpha virt. eigenvalues --    0.27290   0.28125   0.28303   0.28402   0.28963
 Alpha virt. eigenvalues --    0.29220   0.29862   0.30280   0.30719   0.32514
 Alpha virt. eigenvalues --    0.32700   0.33250   0.33801   0.34321   0.34961
 Alpha virt. eigenvalues --    0.35464   0.35535   0.36233   0.36407   0.36918
 Alpha virt. eigenvalues --    0.36926   0.37416   0.38204   0.39182   0.39709
 Alpha virt. eigenvalues --    0.39867   0.40105   0.40237   0.41849   0.41961
 Alpha virt. eigenvalues --    0.42328   0.42645   0.43013   0.43314   0.43609
 Alpha virt. eigenvalues --    0.44412   0.44833   0.44869   0.45711   0.46162
 Alpha virt. eigenvalues --    0.46392   0.46456   0.47785   0.48407   0.48737
 Alpha virt. eigenvalues --    0.49309   0.50242   0.50335   0.50557   0.51077
 Alpha virt. eigenvalues --    0.51137   0.52296   0.52323   0.53098   0.53423
 Alpha virt. eigenvalues --    0.54326   0.55049   0.55191   0.55362   0.55495
 Alpha virt. eigenvalues --    0.55536   0.55887   0.56658   0.56850   0.57426
 Alpha virt. eigenvalues --    0.57804   0.58144   0.58863   0.59000   0.59356
 Alpha virt. eigenvalues --    0.59892   0.60124   0.60520   0.60923   0.61035
 Alpha virt. eigenvalues --    0.61200   0.61608   0.61856   0.62356   0.62442
 Alpha virt. eigenvalues --    0.63037   0.63485   0.63768   0.64049   0.64271
 Alpha virt. eigenvalues --    0.64703   0.64742   0.65226   0.65628   0.66114
 Alpha virt. eigenvalues --    0.68069   0.68839   0.69110   0.69333   0.71343
 Alpha virt. eigenvalues --    0.71628   0.73360   0.73654   0.74765   0.75125
 Alpha virt. eigenvalues --    0.75561   0.78131   0.78818   0.79857   0.81013
 Alpha virt. eigenvalues --    0.81696   0.83628   0.83776   0.83981   0.84226
 Alpha virt. eigenvalues --    0.84680   0.85452   0.86601   0.86615   0.87160
 Alpha virt. eigenvalues --    0.88101   0.88298   0.89156   0.89898   0.89976
 Alpha virt. eigenvalues --    0.90249   0.91134   0.91275   0.92540   0.95483
 Alpha virt. eigenvalues --    0.95588   0.97298   0.97348   0.98929   0.99984
 Alpha virt. eigenvalues --    1.00658   1.01912   1.02421   1.03529   1.03840
 Alpha virt. eigenvalues --    1.04188   1.04467   1.04870   1.07268   1.07763
 Alpha virt. eigenvalues --    1.08277   1.10034   1.10162   1.10988   1.11343
 Alpha virt. eigenvalues --    1.11766   1.12476   1.14029   1.14434   1.15012
 Alpha virt. eigenvalues --    1.15949   1.17592   1.17719   1.19257   1.20713
 Alpha virt. eigenvalues --    1.20914   1.21671   1.21792   1.22840   1.23537
 Alpha virt. eigenvalues --    1.25219   1.25301   1.26296   1.26318   1.26941
 Alpha virt. eigenvalues --    1.28036   1.29020   1.29578   1.30358   1.31431
 Alpha virt. eigenvalues --    1.31463   1.32849   1.34287   1.34342   1.34843
 Alpha virt. eigenvalues --    1.36140   1.36809   1.37607   1.38120   1.38338
 Alpha virt. eigenvalues --    1.38645   1.39576   1.40100   1.40569   1.41031
 Alpha virt. eigenvalues --    1.42737   1.43152   1.43999   1.44312   1.44815
 Alpha virt. eigenvalues --    1.45386   1.46299   1.46557   1.46567   1.46916
 Alpha virt. eigenvalues --    1.47419   1.48554   1.49051   1.49217   1.50631
 Alpha virt. eigenvalues --    1.50847   1.51357   1.52106   1.52344   1.52577
 Alpha virt. eigenvalues --    1.54271   1.55031   1.55278   1.55468   1.56310
 Alpha virt. eigenvalues --    1.56988   1.57276   1.57832   1.58360   1.58929
 Alpha virt. eigenvalues --    1.59122   1.59391   1.60526   1.61224   1.61334
 Alpha virt. eigenvalues --    1.61431   1.62031   1.62646   1.63309   1.63695
 Alpha virt. eigenvalues --    1.64145   1.64590   1.64881   1.66653   1.67184
 Alpha virt. eigenvalues --    1.67767   1.69783   1.69809   1.70283   1.71416
 Alpha virt. eigenvalues --    1.71701   1.71844   1.72370   1.72510   1.74207
 Alpha virt. eigenvalues --    1.74486   1.74969   1.75361   1.75776   1.75776
 Alpha virt. eigenvalues --    1.76721   1.77150   1.78184   1.78259   1.79001
 Alpha virt. eigenvalues --    1.79275   1.79343   1.80684   1.82051   1.85995
 Alpha virt. eigenvalues --    1.86514   1.87215   1.87624   1.88480   1.88712
 Alpha virt. eigenvalues --    1.89205   1.90648   1.90998   1.91392   1.92017
 Alpha virt. eigenvalues --    1.92664   1.92727   1.93937   1.95260   1.95874
 Alpha virt. eigenvalues --    1.99795   2.00211   2.00368   2.00631   2.01660
 Alpha virt. eigenvalues --    2.02680   2.03210   2.03366   2.05674   2.06483
 Alpha virt. eigenvalues --    2.07044   2.07817   2.08365   2.08966   2.10062
 Alpha virt. eigenvalues --    2.10419   2.11363   2.11580   2.11959   2.12646
 Alpha virt. eigenvalues --    2.13051   2.14188   2.14953   2.15693   2.16877
 Alpha virt. eigenvalues --    2.18401   2.18515   2.21112   2.21668   2.24581
 Alpha virt. eigenvalues --    2.27559   2.27978   2.28150   2.29028   2.29045
 Alpha virt. eigenvalues --    2.30172   2.31033   2.31849   2.34241   2.35972
 Alpha virt. eigenvalues --    2.37122   2.37604   2.39789   2.40180   2.40574
 Alpha virt. eigenvalues --    2.41626   2.42519   2.42774   2.42892   2.43697
 Alpha virt. eigenvalues --    2.44976   2.45539   2.46526   2.47147   2.48899
 Alpha virt. eigenvalues --    2.49550   2.50066   2.50670   2.51598   2.53856
 Alpha virt. eigenvalues --    2.54537   2.55111   2.55240   2.55859   2.56622
 Alpha virt. eigenvalues --    2.57410   2.58567   2.60591   2.60963   2.61217
 Alpha virt. eigenvalues --    2.61636   2.63116   2.64045   2.64546   2.64626
 Alpha virt. eigenvalues --    2.65690   2.65924   2.66711   2.66892   2.68049
 Alpha virt. eigenvalues --    2.70360   2.70804   2.71263   2.73521   2.73582
 Alpha virt. eigenvalues --    2.74382   2.74625   2.77933   2.78250   2.78717
 Alpha virt. eigenvalues --    2.79067   2.80002   2.80560   2.81878   2.82123
 Alpha virt. eigenvalues --    2.82487   2.83457   2.84667   2.85652   2.86628
 Alpha virt. eigenvalues --    2.86639   2.87432   2.88393   2.90108   2.90515
 Alpha virt. eigenvalues --    2.91753   2.92595   2.93028   2.93537   2.94519
 Alpha virt. eigenvalues --    2.95639   2.96600   2.97214   2.97973   2.98916
 Alpha virt. eigenvalues --    3.00726   3.00878   3.01804   3.03815   3.05646
 Alpha virt. eigenvalues --    3.06125   3.08248   3.08412   3.09855   3.10171
 Alpha virt. eigenvalues --    3.11490   3.13561   3.14407   3.14589   3.15189
 Alpha virt. eigenvalues --    3.16480   3.16785   3.17937   3.19021   3.20577
 Alpha virt. eigenvalues --    3.26818   3.31224   3.32329   3.33753   3.33878
 Alpha virt. eigenvalues --    3.38796   3.39207   3.47192   3.50418   3.51746
 Alpha virt. eigenvalues --    3.54069   3.54493   3.54807   3.56092   3.56821
 Alpha virt. eigenvalues --    3.57076   3.57546   3.61672   3.62544   3.65224
 Alpha virt. eigenvalues --    3.73557   3.74677   3.75094   3.79117   3.80846
 Alpha virt. eigenvalues --    3.82973   3.83403   3.83678   3.84802   3.85886
 Alpha virt. eigenvalues --    3.86804   3.88445   3.90234   3.91734   3.92618
 Alpha virt. eigenvalues --    3.94397   3.98717   4.03027   4.08365   4.10736
 Alpha virt. eigenvalues --    4.11780   4.12988   4.15475   4.15667   4.16176
 Alpha virt. eigenvalues --    4.20766   4.21719   4.29094   4.32314   4.35848
 Alpha virt. eigenvalues --    4.36870   4.57530   4.58072   4.72136   4.83414
 Alpha virt. eigenvalues --    4.92643   4.98629   5.02132   5.08026   5.09948
 Alpha virt. eigenvalues --    5.29497   5.37794   5.47006   5.49368   6.18193
 Alpha virt. eigenvalues --    6.19973   6.36921   6.55450   6.80221   8.32158
 Alpha virt. eigenvalues --    8.47933   8.48775  23.67961  23.67980  23.71551
 Alpha virt. eigenvalues --   23.74616  23.75193  23.76824  23.77652  23.79005
 Alpha virt. eigenvalues --   23.79201  23.81007  23.81933  23.83315  23.83563
 Alpha virt. eigenvalues --   23.88318  23.88772  23.90385  24.02190  24.03032
 Alpha virt. eigenvalues --   24.04758  28.09540  33.89829  34.00294  34.01161
 Alpha virt. eigenvalues --   35.55815  35.56310  35.57550  35.63617  49.84845
 Alpha virt. eigenvalues --   49.88148 153.66060 804.73554
  Beta  occ. eigenvalues -- -276.74087 -32.51805 -28.19943 -28.19935 -28.18271
  Beta  occ. eigenvalues --  -19.01611 -19.01611 -14.22923 -14.22923 -14.22207
  Beta  occ. eigenvalues --  -14.22207 -10.14120 -10.14120 -10.14105 -10.14105
  Beta  occ. eigenvalues --  -10.13924 -10.13924 -10.13556 -10.13544 -10.10529
  Beta  occ. eigenvalues --  -10.10529 -10.10145 -10.10144 -10.09994 -10.09994
  Beta  occ. eigenvalues --  -10.09922 -10.09922 -10.08867 -10.08867 -10.08512
  Beta  occ. eigenvalues --   -3.65911  -2.37443  -2.37360  -2.33994  -1.07255
  Beta  occ. eigenvalues --   -1.07209  -1.01125  -0.99861  -0.99643  -0.97956
  Beta  occ. eigenvalues --   -0.86512  -0.83339  -0.83183  -0.82643  -0.82115
  Beta  occ. eigenvalues --   -0.82087  -0.81353  -0.76997  -0.76266  -0.70739
  Beta  occ. eigenvalues --   -0.69581  -0.67778  -0.65207  -0.65148  -0.64238
  Beta  occ. eigenvalues --   -0.61966  -0.61339  -0.60990  -0.60926  -0.59756
  Beta  occ. eigenvalues --   -0.57590  -0.56887  -0.56664  -0.55761  -0.54843
  Beta  occ. eigenvalues --   -0.54171  -0.53499  -0.52962  -0.52312  -0.50146
  Beta  occ. eigenvalues --   -0.49197  -0.48820  -0.48551  -0.48050  -0.47039
  Beta  occ. eigenvalues --   -0.46763  -0.46317  -0.45736  -0.45166  -0.45114
  Beta  occ. eigenvalues --   -0.44981  -0.44740  -0.44404  -0.44037  -0.43902
  Beta  occ. eigenvalues --   -0.43564  -0.42739  -0.42587  -0.42169  -0.41900
  Beta  occ. eigenvalues --   -0.41007  -0.40758  -0.40264  -0.40238  -0.39354
  Beta  occ. eigenvalues --   -0.38408  -0.38379  -0.37656  -0.34541  -0.32358
  Beta  occ. eigenvalues --   -0.29156  -0.28818  -0.27996  -0.27064
  Beta virt. eigenvalues --   -0.20015  -0.19197  -0.16947  -0.14738  -0.14487
  Beta virt. eigenvalues --   -0.12908  -0.12479  -0.09803  -0.09200  -0.08381
  Beta virt. eigenvalues --   -0.08172  -0.08086  -0.08056  -0.07743  -0.07722
  Beta virt. eigenvalues --   -0.06881  -0.06157  -0.06125  -0.05755  -0.05487
  Beta virt. eigenvalues --   -0.05087  -0.04574  -0.04404  -0.03898  -0.03294
  Beta virt. eigenvalues --   -0.03275  -0.03080  -0.02856  -0.02306  -0.02228
  Beta virt. eigenvalues --   -0.01832  -0.01673  -0.01323  -0.01181  -0.01099
  Beta virt. eigenvalues --   -0.00481  -0.00379  -0.00323   0.01305   0.01324
  Beta virt. eigenvalues --    0.01626   0.01745   0.01961   0.02389   0.02396
  Beta virt. eigenvalues --    0.02751   0.02984   0.03392   0.03670   0.03837
  Beta virt. eigenvalues --    0.04203   0.04245   0.04956   0.05030   0.05242
  Beta virt. eigenvalues --    0.05756   0.05806   0.05892   0.05900   0.06070
  Beta virt. eigenvalues --    0.06350   0.06868   0.07307   0.07385   0.07971
  Beta virt. eigenvalues --    0.08144   0.08213   0.08839   0.08914   0.08979
  Beta virt. eigenvalues --    0.09227   0.09434   0.09501   0.09693   0.09695
  Beta virt. eigenvalues --    0.10439   0.10466   0.10501   0.10700   0.11027
  Beta virt. eigenvalues --    0.11380   0.11585   0.12068   0.12073   0.12182
  Beta virt. eigenvalues --    0.12649   0.12678   0.12973   0.13097   0.13705
  Beta virt. eigenvalues --    0.13866   0.14127   0.14764   0.14770   0.15072
  Beta virt. eigenvalues --    0.15278   0.15355   0.15646   0.15752   0.15847
  Beta virt. eigenvalues --    0.15947   0.16718   0.16778   0.17083   0.17093
  Beta virt. eigenvalues --    0.17623   0.17790   0.17856   0.18145   0.18362
  Beta virt. eigenvalues --    0.18610   0.18682   0.19307   0.19376   0.19508
  Beta virt. eigenvalues --    0.19595   0.19915   0.20303   0.20328   0.20456
  Beta virt. eigenvalues --    0.20568   0.20903   0.21338   0.21467   0.22049
  Beta virt. eigenvalues --    0.22455   0.22509   0.22951   0.23290   0.23385
  Beta virt. eigenvalues --    0.23573   0.23707   0.24345   0.24437   0.25409
  Beta virt. eigenvalues --    0.25440   0.25938   0.25986   0.26331   0.26440
  Beta virt. eigenvalues --    0.27310   0.27338   0.28164   0.28341   0.28577
  Beta virt. eigenvalues --    0.29105   0.29224   0.29884   0.30296   0.30750
  Beta virt. eigenvalues --    0.32610   0.32736   0.33328   0.33887   0.34330
  Beta virt. eigenvalues --    0.34977   0.35494   0.35565   0.36238   0.36435
  Beta virt. eigenvalues --    0.36940   0.36976   0.37498   0.38231   0.39272
  Beta virt. eigenvalues --    0.39742   0.39908   0.40167   0.40289   0.41895
  Beta virt. eigenvalues --    0.42072   0.42375   0.42670   0.43071   0.43346
  Beta virt. eigenvalues --    0.43639   0.44511   0.44872   0.44891   0.45738
  Beta virt. eigenvalues --    0.46202   0.46388   0.46511   0.47787   0.48432
  Beta virt. eigenvalues --    0.48762   0.49348   0.50269   0.50365   0.50551
  Beta virt. eigenvalues --    0.51094   0.51155   0.52327   0.52336   0.53124
  Beta virt. eigenvalues --    0.53478   0.54333   0.55103   0.55232   0.55364
  Beta virt. eigenvalues --    0.55537   0.55566   0.55888   0.56677   0.56847
  Beta virt. eigenvalues --    0.57435   0.57808   0.58132   0.58848   0.59022
  Beta virt. eigenvalues --    0.59381   0.59903   0.60115   0.60504   0.60919
  Beta virt. eigenvalues --    0.61037   0.61196   0.61632   0.61868   0.62351
  Beta virt. eigenvalues --    0.62490   0.63045   0.63494   0.63802   0.64081
  Beta virt. eigenvalues --    0.64266   0.64724   0.64760   0.65254   0.65647
  Beta virt. eigenvalues --    0.66122   0.68146   0.68896   0.69107   0.69334
  Beta virt. eigenvalues --    0.71338   0.71640   0.73374   0.73663   0.74798
  Beta virt. eigenvalues --    0.75179   0.75608   0.78207   0.78841   0.79954
  Beta virt. eigenvalues --    0.81120   0.81723   0.83639   0.83793   0.84001
  Beta virt. eigenvalues --    0.84231   0.84696   0.85529   0.86608   0.86624
  Beta virt. eigenvalues --    0.87241   0.88132   0.88317   0.89159   0.89910
  Beta virt. eigenvalues --    0.90017   0.90292   0.91128   0.91354   0.92580
  Beta virt. eigenvalues --    0.95518   0.95581   0.97338   0.97370   0.98934
  Beta virt. eigenvalues --    1.00004   1.00693   1.01913   1.02459   1.03546
  Beta virt. eigenvalues --    1.03836   1.04202   1.04487   1.04904   1.07328
  Beta virt. eigenvalues --    1.07828   1.08291   1.10079   1.10228   1.11062
  Beta virt. eigenvalues --    1.11359   1.11896   1.12498   1.14037   1.14450
  Beta virt. eigenvalues --    1.15056   1.15992   1.17714   1.17753   1.19397
  Beta virt. eigenvalues --    1.20774   1.20974   1.21712   1.22134   1.22925
  Beta virt. eigenvalues --    1.23577   1.25308   1.25397   1.26352   1.26532
  Beta virt. eigenvalues --    1.26946   1.28113   1.29097   1.29628   1.30383
  Beta virt. eigenvalues --    1.31465   1.31473   1.32955   1.34469   1.34623
  Beta virt. eigenvalues --    1.34893   1.36180   1.36881   1.37608   1.38147
  Beta virt. eigenvalues --    1.38352   1.38687   1.39672   1.40111   1.40568
  Beta virt. eigenvalues --    1.41030   1.42740   1.43155   1.44027   1.44331
  Beta virt. eigenvalues --    1.44813   1.45453   1.46307   1.46600   1.46624
  Beta virt. eigenvalues --    1.47021   1.47453   1.48563   1.49171   1.49289
  Beta virt. eigenvalues --    1.50662   1.50919   1.51422   1.52118   1.52695
  Beta virt. eigenvalues --    1.52753   1.54406   1.55181   1.55492   1.55638
  Beta virt. eigenvalues --    1.56439   1.57124   1.57394   1.57843   1.58558
  Beta virt. eigenvalues --    1.58938   1.59457   1.59476   1.60745   1.61250
  Beta virt. eigenvalues --    1.61376   1.61483   1.62148   1.62802   1.63310
  Beta virt. eigenvalues --    1.63764   1.64308   1.64751   1.64963   1.66708
  Beta virt. eigenvalues --    1.67257   1.67918   1.69817   1.69838   1.70290
  Beta virt. eigenvalues --    1.71563   1.71722   1.71921   1.72409   1.72637
  Beta virt. eigenvalues --    1.74235   1.74920   1.75025   1.75395   1.75915
  Beta virt. eigenvalues --    1.76048   1.76727   1.77207   1.78214   1.78365
  Beta virt. eigenvalues --    1.79090   1.79396   1.79445   1.80738   1.82123
  Beta virt. eigenvalues --    1.86174   1.86532   1.87384   1.87644   1.88687
  Beta virt. eigenvalues --    1.88776   1.89296   1.90701   1.91028   1.91546
  Beta virt. eigenvalues --    1.92137   1.92712   1.92766   1.94069   1.95345
  Beta virt. eigenvalues --    1.95880   2.00228   2.00328   2.00610   2.00773
  Beta virt. eigenvalues --    2.01697   2.02730   2.03446   2.03462   2.05711
  Beta virt. eigenvalues --    2.06958   2.07045   2.07844   2.08831   2.09281
  Beta virt. eigenvalues --    2.10064   2.10451   2.11500   2.11862   2.12079
  Beta virt. eigenvalues --    2.12728   2.13130   2.14240   2.15040   2.15709
  Beta virt. eigenvalues --    2.16898   2.18417   2.18941   2.21560   2.21813
  Beta virt. eigenvalues --    2.24680   2.27671   2.28008   2.28179   2.29054
  Beta virt. eigenvalues --    2.29081   2.30165   2.31067   2.32022   2.34244
  Beta virt. eigenvalues --    2.35981   2.37297   2.37601   2.39779   2.40185
  Beta virt. eigenvalues --    2.40820   2.41626   2.42517   2.42769   2.42960
  Beta virt. eigenvalues --    2.43708   2.44978   2.45605   2.46565   2.47164
  Beta virt. eigenvalues --    2.48918   2.49554   2.50085   2.50688   2.51615
  Beta virt. eigenvalues --    2.53893   2.54546   2.55162   2.55383   2.55872
  Beta virt. eigenvalues --    2.56665   2.57414   2.58658   2.60699   2.60966
  Beta virt. eigenvalues --    2.61368   2.61720   2.63192   2.64064   2.64603
  Beta virt. eigenvalues --    2.64638   2.65740   2.65927   2.66775   2.66891
  Beta virt. eigenvalues --    2.68167   2.70410   2.70818   2.71420   2.73552
  Beta virt. eigenvalues --    2.73588   2.74408   2.74705   2.77948   2.78250
  Beta virt. eigenvalues --    2.78864   2.79153   2.79991   2.80631   2.81917
  Beta virt. eigenvalues --    2.82177   2.82535   2.83441   2.84633   2.85652
  Beta virt. eigenvalues --    2.86614   2.86655   2.87395   2.88417   2.90166
  Beta virt. eigenvalues --    2.90514   2.91769   2.92672   2.93127   2.93557
  Beta virt. eigenvalues --    2.94497   2.95684   2.96849   2.97280   2.98192
  Beta virt. eigenvalues --    2.99244   3.00988   3.01191   3.01909   3.03949
  Beta virt. eigenvalues --    3.06106   3.06189   3.08483   3.08697   3.10021
  Beta virt. eigenvalues --    3.10390   3.11608   3.13961   3.15129   3.15425
  Beta virt. eigenvalues --    3.16063   3.16655   3.17245   3.19670   3.19787
  Beta virt. eigenvalues --    3.23652   3.27415   3.31517   3.33181   3.33821
  Beta virt. eigenvalues --    3.34460   3.38941   3.39461   3.47272   3.50834
  Beta virt. eigenvalues --    3.53049   3.54315   3.54540   3.54987   3.56856
  Beta virt. eigenvalues --    3.56946   3.57853   3.58385   3.62009   3.62608
  Beta virt. eigenvalues --    3.65537   3.73570   3.74706   3.75104   3.79188
  Beta virt. eigenvalues --    3.80897   3.82976   3.83418   3.83687   3.84802
  Beta virt. eigenvalues --    3.85931   3.86804   3.88539   3.90262   3.91787
  Beta virt. eigenvalues --    3.92694   3.94506   3.98743   4.03334   4.08442
  Beta virt. eigenvalues --    4.10727   4.11775   4.13577   4.15658   4.15984
  Beta virt. eigenvalues --    4.17703   4.20747   4.21730   4.29068   4.32366
  Beta virt. eigenvalues --    4.35806   4.37111   4.57620   4.58169   4.72254
  Beta virt. eigenvalues --    4.83425   4.92663   4.98591   5.02509   5.08364
  Beta virt. eigenvalues --    5.09902   5.29858   5.38133   5.47249   5.49607
  Beta virt. eigenvalues --    6.20628   6.22309   6.39495   6.62674   6.83128
  Beta virt. eigenvalues --    8.38305   8.51168   8.52149  23.67940  23.67962
  Beta virt. eigenvalues --   23.71521  23.74612  23.75190  23.76821  23.77645
  Beta virt. eigenvalues --   23.79002  23.79199  23.81004  23.81931  23.83312
  Beta virt. eigenvalues --   23.83547  23.88290  23.88752  23.90345  24.02190
  Beta virt. eigenvalues --   24.03033  24.04755  28.13703  33.94598  34.02974
  Beta virt. eigenvalues --   34.03956  35.55800  35.56297  35.57535  35.63601
  Beta virt. eigenvalues --   49.85040  49.88343 153.68785 804.74360
          Condensed to atoms (all electrons):
          Atomic-Atomic Spin Densities.
 Mulliken charges and spin densities:
               1          2
     1  O   -0.370383  -0.002846
     2  H    0.288790   0.007774
     3  H    0.253905   0.007794
     4  Co  -2.731675   1.101158
     5  N    0.437787  -0.002251
     6  C    0.311181  -0.030596
     7  C   -0.699960  -0.003123
     8  C   -0.533816   0.000933
     9  C    0.086856  -0.034041
    10  C   -0.119599   0.005952
    11  C    0.514885  -0.004499
    12  N    0.509790  -0.000166
    13  C    0.141318  -0.000545
    14  C   -0.518194   0.003219
    15  C   -0.639037   0.003430
    16  C    0.141324  -0.000545
    17  N    0.509789  -0.000166
    18  C    0.514892  -0.004498
    19  C   -0.639040   0.003430
    20  C   -0.518192   0.003218
    21  C    0.103428   0.005088
    22  C    0.086883  -0.034041
    23  N    0.437794  -0.002251
    24  C    0.311206  -0.030595
    25  C   -0.699975  -0.003123
    26  C   -0.533820   0.000934
    27  C   -0.119617   0.005953
    28  H    0.179056   0.000374
    29  H    0.179056   0.000374
    30  H    0.145955  -0.000254
    31  H    0.144825  -0.000369
    32  H    0.144825  -0.000369
    33  H    0.199068   0.000032
    34  H    0.207170  -0.000061
    35  H    0.221583  -0.000645
    36  H    0.212637  -0.000348
    37  H    0.233028  -0.000647
    38  H    0.225660  -0.000871
    39  H    0.221582  -0.000645
    40  H    0.199068   0.000032
    41  H    0.207170  -0.000061
    42  H    0.225660  -0.000871
    43  H    0.212637  -0.000348
    44  H    0.221385  -0.000311
    45  H    0.221386  -0.000311
    46  H    0.233193  -0.001184
    47  H    0.233028  -0.000647
    48  H    0.233193  -0.001184
    49  O   -0.370381  -0.002846
    50  H    0.253905   0.007794
    51  H    0.288790   0.007774
 Sum of Mulliken charges =   1.00000   1.00000
 Mulliken charges and spin densities with hydrogens summed into heavy atoms:
               1          2
     1  O    0.172312   0.012722
     4  Co  -2.731675   1.101158
     5  N    0.437787  -0.002251
     6  C    0.311181  -0.030596
     7  C   -0.245546  -0.004081
     8  C   -0.079040  -0.000896
     9  C    0.086856  -0.034041
    10  C    0.025225   0.005583
    11  C    0.514885  -0.004499
    12  N    0.509790  -0.000166
    13  C    0.320374  -0.000171
    14  C   -0.111955   0.003189
    15  C   -0.200740   0.002211
    16  C    0.320380  -0.000172
    17  N    0.509789  -0.000166
    18  C    0.514892  -0.004498
    19  C   -0.200743   0.002211
    20  C   -0.111953   0.003189
    21  C    0.249384   0.004834
    22  C    0.086883  -0.034041
    23  N    0.437794  -0.002251
    24  C    0.311206  -0.030595
    25  C   -0.245562  -0.004081
    26  C   -0.079045  -0.000896
    27  C    0.025208   0.005583
    49  O    0.172314   0.012722
 Electronic spatial extent (au):  <R**2>=           7883.9095
 Charge=              1.0000 electrons
 Dipole moment (field-independent basis, Debye):
    X=              1.6355    Y=              0.0000    Z=              0.0000  Tot=              1.6355
 Quadrupole moment (field-independent basis, Debye-Ang):
   XX=           -113.1542   YY=           -113.7357   ZZ=           -140.9118
   XY=              0.0000   XZ=              0.0001   YZ=              0.5221
 Traceless Quadrupole moment (field-independent basis, Debye-Ang):
   XX=              9.4463   YY=              8.8649   ZZ=            -18.3112
   XY=              0.0000   XZ=              0.0001   YZ=              0.5221
 Octapole moment (field-independent basis, Debye-Ang**2):
  XXX=            -15.1343  YYY=              0.0000  ZZZ=             -0.0001  XYY=            -18.0295
  XXY=              0.0002  XXZ=              0.0000  XZZ=             22.6299  YZZ=              0.0000
  YYZ=              0.0001  XYZ=              0.4584
 Hexadecapole moment (field-independent basis, Debye-Ang**3):
 XXXX=          -4517.6137 YYYY=          -4246.2598 ZZZZ=           -526.9177 XXXY=             -0.0010
 XXXZ=             -0.0001 YYYX=              0.0005 YYYZ=            -20.0991 ZZZX=              0.0012
 ZZZY=              3.8609 XXYY=          -1354.9697 XXZZ=           -946.6735 YYZZ=           -888.0945
 XXYZ=              8.1590 YYXZ=              0.0000 ZZXY=             -0.0001
 N-N= 3.209285990415D+03 E-N=-1.227589826034D+04  KE= 2.486185779629D+03
                          Isotropic Fermi Contact Couplings
        Atom                 a.u.       MegaHertz       Gauss      10(-4) cm-1
     1  O(17)              0.10061     -60.99117     -21.76317     -20.34446
     2  H(1)               0.00011       0.50077       0.17869       0.16704
     3  H(1)               0.00008       0.37430       0.13356       0.12485
     4  Co(59)             0.17340     183.43868      65.45548      61.18856
     5  N(14)             -0.00603      -1.94847      -0.69526      -0.64994
     6  C(13)             -0.00138      -1.55427      -0.55460      -0.51845
     7  C(13)              0.00016       0.18425       0.06575       0.06146
     8  C(13)              0.00040       0.44658       0.15935       0.14896
     9  C(13)             -0.00227      -2.55086      -0.91021      -0.85088
    10  C(13)              0.00148       1.66292       0.59337       0.55469
    11  C(13)             -0.00129      -1.45094      -0.51773      -0.48398
    12  N(14)             -0.00814      -2.63095      -0.93879      -0.87759
    13  C(13)              0.00009       0.09910       0.03536       0.03306
    14  C(13)              0.00006       0.06442       0.02299       0.02149
    15  C(13)             -0.00003      -0.03899      -0.01391      -0.01300
    16  C(13)              0.00009       0.09911       0.03536       0.03306
    17  N(14)             -0.00814      -2.63093      -0.93878      -0.87758
    18  C(13)             -0.00129      -1.45092      -0.51773      -0.48398
    19  C(13)             -0.00003      -0.03899      -0.01391      -0.01300
    20  C(13)              0.00006       0.06442       0.02299       0.02149
    21  C(13)              0.00173       1.95026       0.69590       0.65054
    22  C(13)             -0.00227      -2.55086      -0.91021      -0.85087
    23  N(14)             -0.00603      -1.94847      -0.69526      -0.64994
    24  C(13)             -0.00138      -1.55427      -0.55460      -0.51845
    25  C(13)              0.00016       0.18424       0.06574       0.06146
    26  C(13)              0.00040       0.44657       0.15935       0.14896
    27  C(13)              0.00148       1.66292       0.59337       0.55469
    28  H(1)               0.00019       0.83545       0.29811       0.27868
    29  H(1)               0.00019       0.83546       0.29811       0.27868
    30  H(1)              -0.00003      -0.14069      -0.05020      -0.04693
    31  H(1)              -0.00006      -0.26271      -0.09374      -0.08763
    32  H(1)              -0.00006      -0.26271      -0.09374      -0.08763
    33  H(1)               0.00001       0.04743       0.01692       0.01582
    34  H(1)              -0.00004      -0.17836      -0.06364      -0.05950
    35  H(1)              -0.00034      -1.52246      -0.54325      -0.50784
    36  H(1)              -0.00020      -0.89138      -0.31807      -0.29733
    37  H(1)              -0.00031      -1.40362      -0.50085      -0.46820
    38  H(1)              -0.00041      -1.81644      -0.64815      -0.60590
    39  H(1)              -0.00034      -1.52238      -0.54322      -0.50781
    40  H(1)               0.00001       0.04743       0.01692       0.01582
    41  H(1)              -0.00004      -0.17836      -0.06364      -0.05950
    42  H(1)              -0.00041      -1.81646      -0.64816      -0.60590
    43  H(1)              -0.00020      -0.89137      -0.31806      -0.29733
    44  H(1)              -0.00018      -0.79010      -0.28193      -0.26355
    45  H(1)              -0.00018      -0.79015      -0.28194      -0.26356
    46  H(1)              -0.00056      -2.49424      -0.89001      -0.83199
    47  H(1)              -0.00031      -1.40359      -0.50084      -0.46819
    48  H(1)              -0.00056      -2.49421      -0.89000      -0.83198
    49  O(17)              0.10061     -60.99218     -21.76352     -20.34480
    50  H(1)               0.00008       0.37441       0.13360       0.12489
    51  H(1)               0.00011       0.50077       0.17869       0.16704
 --------------------------------------------------------
       Center         ----  Spin Dipole Couplings  ----
                      3XX-RR        3YY-RR        3ZZ-RR
 --------------------------------------------------------
     1   Atom       -0.069804     -0.093541      0.163345
     2   Atom       -0.011420     -0.002499      0.013918
     3   Atom       -0.007831     -0.003238      0.011069
     4   Atom       -1.421692     -1.251407      2.673098
     5   Atom       -0.001039      0.002396     -0.001357
     6   Atom        0.003215      0.014288     -0.017503
     7   Atom       -0.000596      0.001999     -0.001403
     8   Atom        0.001869     -0.000447     -0.001421
     9   Atom        0.018156      0.008939     -0.027096
    10   Atom       -0.007761      0.005322      0.002439
    11   Atom        0.006205      0.014422     -0.020628
    12   Atom       -0.008727      0.001067      0.007660
    13   Atom        0.008620     -0.004392     -0.004228
    14   Atom        0.002661     -0.001070     -0.001591
    15   Atom       -0.000311      0.001426     -0.001116
    16   Atom        0.008620     -0.004392     -0.004228
    17   Atom       -0.008727      0.001067      0.007660
    18   Atom        0.006205      0.014422     -0.020628
    19   Atom       -0.000311      0.001426     -0.001116
    20   Atom        0.002661     -0.001070     -0.001591
    21   Atom        0.006518     -0.007608      0.001091
    22   Atom        0.018156      0.008939     -0.027096
    23   Atom       -0.001039      0.002396     -0.001357
    24   Atom        0.003215      0.014288     -0.017503
    25   Atom       -0.000596      0.001999     -0.001403
    26   Atom        0.001868     -0.000447     -0.001421
    27   Atom       -0.007761      0.005322      0.002439
    28   Atom        0.006095     -0.004133     -0.001962
    29   Atom        0.006095     -0.004133     -0.001962
    30   Atom        0.003499     -0.002148     -0.001351
    31   Atom       -0.002115      0.003513     -0.001398
    32   Atom       -0.002115      0.003513     -0.001398
    33   Atom        0.002273     -0.000950     -0.001323
    34   Atom        0.001764     -0.000730     -0.001033
    35   Atom        0.001193     -0.000266     -0.000927
    36   Atom        0.000102      0.000933     -0.001035
    37   Atom       -0.000344      0.001390     -0.001045
    38   Atom        0.000205      0.000899     -0.001103
    39   Atom        0.001193     -0.000266     -0.000927
    40   Atom        0.002273     -0.000950     -0.001323
    41   Atom        0.001764     -0.000730     -0.001033
    42   Atom        0.000205      0.000899     -0.001103
    43   Atom        0.000102      0.000933     -0.001035
    44   Atom       -0.000390      0.001327     -0.000937
    45   Atom       -0.000390      0.001327     -0.000937
    46   Atom        0.001187     -0.000165     -0.001022
    47   Atom       -0.000344      0.001390     -0.001045
    48   Atom        0.001187     -0.000165     -0.001022
    49   Atom       -0.069803     -0.093542      0.163345
    50   Atom       -0.007831     -0.003238      0.011069
    51   Atom       -0.011420     -0.002498      0.013918
 --------------------------------------------------------
                        XY            XZ            YZ
 --------------------------------------------------------
     1   Atom        0.011812     -0.079520     -0.036033
     2   Atom        0.002315      0.001124      0.009318
     3   Atom       -0.005821      0.004750     -0.010234
     4   Atom       -0.000002      0.000006     -0.317493
     5   Atom       -0.014238     -0.001916      0.002397
     6   Atom       -0.004844      0.000586     -0.001698
     7   Atom       -0.002034      0.000085     -0.000042
     8   Atom       -0.001971     -0.000067      0.000075
     9   Atom       -0.005960      0.000175      0.000800
    10   Atom        0.001068     -0.000542      0.000652
    11   Atom        0.006148      0.002222     -0.000857
    12   Atom        0.011282     -0.001679      0.001569
    13   Atom        0.005391      0.001318      0.000691
    14   Atom        0.002391     -0.000066     -0.000013
    15   Atom        0.001960      0.000082      0.000074
    16   Atom       -0.005391     -0.001318      0.000691
    17   Atom       -0.011282      0.001679      0.001569
    18   Atom       -0.006148     -0.002222     -0.000857
    19   Atom       -0.001960     -0.000082      0.000074
    20   Atom       -0.002391      0.000066     -0.000013
    21   Atom        0.000000      0.000000     -0.000349
    22   Atom        0.005960     -0.000175      0.000800
    23   Atom        0.014238      0.001916      0.002397
    24   Atom        0.004844     -0.000586     -0.001698
    25   Atom        0.002034     -0.000085     -0.000042
    26   Atom        0.001971      0.000067      0.000075
    27   Atom       -0.001068      0.000542      0.000652
    28   Atom        0.001829      0.004544      0.000828
    29   Atom       -0.001829     -0.004544      0.000828
    30   Atom        0.000000      0.000000     -0.000023
    31   Atom       -0.000448      0.000035     -0.000034
    32   Atom        0.000448     -0.000035     -0.000034
    33   Atom       -0.001843      0.000977     -0.000509
    34   Atom       -0.001212     -0.000243      0.000111
    35   Atom       -0.001396      0.000211     -0.000180
    36   Atom       -0.001580      0.000147     -0.000118
    37   Atom        0.001597     -0.000384     -0.000562
    38   Atom       -0.001783     -0.000529      0.000598
    39   Atom        0.001396     -0.000211     -0.000180
    40   Atom        0.001843     -0.000977     -0.000509
    41   Atom        0.001212      0.000243      0.000111
    42   Atom        0.001783      0.000529      0.000598
    43   Atom        0.001580     -0.000147     -0.000118
    44   Atom        0.001358      0.000162      0.000206
    45   Atom       -0.001358     -0.000162      0.000206
    46   Atom        0.001567      0.000443      0.000323
    47   Atom       -0.001597      0.000384     -0.000562
    48   Atom       -0.001567     -0.000443      0.000323
    49   Atom       -0.011812      0.079524     -0.036032
    50   Atom        0.005821     -0.004750     -0.010234
    51   Atom       -0.002315     -0.001123      0.009318
 --------------------------------------------------------


 ---------------------------------------------------------------------------------
              Anisotropic Spin Dipole Couplings in Principal Axis System
 ---------------------------------------------------------------------------------

       Atom             a.u.   MegaHertz   Gauss  10(-4) cm-1        Axes

              Baa    -0.0987     7.139     2.547     2.381 -0.1819  0.9801  0.0796
     1 O(17)  Bbb    -0.0942     6.819     2.433     2.275  0.9388  0.1490  0.3107
              Bcc     0.1929   -13.958    -4.981    -4.656 -0.2926 -0.1312  0.9472
 
              Baa    -0.0121    -6.433    -2.295    -2.146  0.9538 -0.2934  0.0640
     2 H(1)   Bbb    -0.0062    -3.310    -1.181    -1.104  0.2928  0.8613 -0.4152
              Bcc     0.0183     9.742     3.476     3.250  0.0667  0.4148  0.9075
 
              Baa    -0.0120    -6.425    -2.293    -2.143  0.7475  0.6505  0.1344
     3 H(1)   Bbb    -0.0062    -3.313    -1.182    -1.105  0.6118 -0.5954 -0.5208
              Bcc     0.0183     9.738     3.475     3.248  0.2588 -0.4716  0.8430
 
              Baa    -1.4217  -179.530   -64.061   -59.885  1.0000  0.0000  0.0000
     4 Co(59) Bbb    -1.2769  -161.249   -57.538   -53.787  0.0000  0.9968  0.0801
              Bcc     2.6986   340.779   121.598   113.672  0.0000 -0.0801  0.9968
 
              Baa    -0.0137    -0.527    -0.188    -0.176  0.7473  0.6644 -0.0130
     5 N(14)  Bbb    -0.0019    -0.074    -0.026    -0.025  0.1280 -0.1246  0.9839
              Bcc     0.0156     0.601     0.214     0.200 -0.6521  0.7369  0.1781
 
              Baa    -0.0176    -2.362    -0.843    -0.788 -0.0163  0.0507  0.9986
     6 C(13)  Bbb     0.0014     0.187     0.067     0.062  0.9362  0.3514 -0.0025
              Bcc     0.0162     2.174     0.776     0.725 -0.3510  0.9348 -0.0532
 
              Baa    -0.0017    -0.231    -0.082    -0.077  0.8653  0.4713 -0.1710
     7 C(13)  Bbb    -0.0014    -0.187    -0.067    -0.062  0.1418  0.0971  0.9851
              Bcc     0.0031     0.418     0.149     0.139 -0.4809  0.8766 -0.0172
 
              Baa    -0.0016    -0.212    -0.076    -0.071  0.4834  0.8530 -0.1968
     8 C(13)  Bbb    -0.0014    -0.190    -0.068    -0.063  0.1162  0.1603  0.9802
              Bcc     0.0030     0.402     0.144     0.134  0.8676 -0.4967 -0.0216
 
              Baa    -0.0271    -3.639    -1.298    -1.214 -0.0069 -0.0233  0.9997
     9 C(13)  Bbb     0.0060     0.810     0.289     0.270  0.4408  0.8973  0.0240
              Bcc     0.0211     2.829     1.009     0.944  0.8976 -0.4408 -0.0041
 
              Baa    -0.0079    -1.058    -0.377    -0.353  0.9949 -0.0833  0.0575
    10 C(13)  Bbb     0.0024     0.316     0.113     0.105 -0.0725 -0.1891  0.9793
              Bcc     0.0055     0.742     0.265     0.247  0.0707  0.9784  0.1942
 
              Baa    -0.0209    -2.800    -0.999    -0.934 -0.0907  0.0400  0.9951
    11 C(13)  Bbb     0.0032     0.423     0.151     0.141  0.8767 -0.4708  0.0989
              Bcc     0.0177     2.377     0.848     0.793  0.4724  0.8813  0.0077
 
              Baa    -0.0163    -0.630    -0.225    -0.210  0.8316 -0.5474  0.0939
    12 N(14)  Bbb     0.0077     0.296     0.106     0.099 -0.3141 -0.3241  0.8924
              Bcc     0.0087     0.334     0.119     0.111  0.4580  0.7716  0.4414
 
              Baa    -0.0064    -0.853    -0.304    -0.285 -0.3291  0.9389 -0.1010
    13 C(13)  Bbb    -0.0044    -0.584    -0.208    -0.195 -0.1265  0.0622  0.9900
              Bcc     0.0107     1.437     0.513     0.479  0.9358  0.3386  0.0983
 
              Baa    -0.0022    -0.300    -0.107    -0.100 -0.4389  0.8981 -0.0271
    14 C(13)  Bbb    -0.0016    -0.214    -0.076    -0.071 -0.0012  0.0296  0.9996
              Bcc     0.0038     0.514     0.183     0.171  0.8986  0.4387 -0.0120
 
              Baa    -0.0016    -0.213    -0.076    -0.071  0.8375 -0.5431 -0.0602
    15 C(13)  Bbb    -0.0011    -0.150    -0.053    -0.050  0.0353 -0.0561  0.9978
              Bcc     0.0027     0.363     0.130     0.121  0.5453  0.8378  0.0278
 
              Baa    -0.0064    -0.853    -0.304    -0.285  0.3291  0.9389 -0.1010
    16 C(13)  Bbb    -0.0044    -0.584    -0.208    -0.195  0.1265  0.0622  0.9900
              Bcc     0.0107     1.437     0.513     0.479  0.9358 -0.3386 -0.0983
 
              Baa    -0.0163    -0.630    -0.225    -0.210  0.8316  0.5474 -0.0939
    17 N(14)  Bbb     0.0077     0.296     0.106     0.099  0.3141 -0.3241  0.8924
              Bcc     0.0087     0.334     0.119     0.111 -0.4580  0.7716  0.4414
 
              Baa    -0.0209    -2.800    -0.999    -0.934  0.0907  0.0400  0.9951
    18 C(13)  Bbb     0.0032     0.423     0.151     0.141  0.8767  0.4708 -0.0989
              Bcc     0.0177     2.377     0.848     0.793 -0.4724  0.8813  0.0077
 
              Baa    -0.0016    -0.213    -0.076    -0.071  0.8375  0.5431  0.0602
    19 C(13)  Bbb    -0.0011    -0.150    -0.053    -0.050 -0.0353 -0.0561  0.9978
              Bcc     0.0027     0.363     0.130     0.121 -0.5453  0.8378  0.0278
 
              Baa    -0.0022    -0.300    -0.107    -0.100  0.4388  0.8982 -0.0271
    20 C(13)  Bbb    -0.0016    -0.214    -0.076    -0.071  0.0012  0.0296  0.9996
              Bcc     0.0038     0.514     0.183     0.171  0.8986 -0.4387  0.0120
 
              Baa    -0.0076    -1.023    -0.365    -0.341  0.0000  0.9992  0.0400
    21 C(13)  Bbb     0.0011     0.148     0.053     0.049  0.0000 -0.0400  0.9992
              Bcc     0.0065     0.875     0.312     0.292  1.0000  0.0000  0.0000
 
              Baa    -0.0271    -3.639    -1.298    -1.214  0.0069 -0.0233  0.9997
    22 C(13)  Bbb     0.0060     0.810     0.289     0.270 -0.4408  0.8973  0.0240
              Bcc     0.0211     2.829     1.009     0.944  0.8976  0.4408  0.0041
 
              Baa    -0.0137    -0.527    -0.188    -0.176  0.7473 -0.6644  0.0130
    23 N(14)  Bbb    -0.0019    -0.074    -0.026    -0.025 -0.1280 -0.1246  0.9839
              Bcc     0.0156     0.601     0.214     0.200  0.6521  0.7369  0.1781
 
              Baa    -0.0176    -2.362    -0.843    -0.788  0.0163  0.0507  0.9986
    24 C(13)  Bbb     0.0014     0.187     0.067     0.062  0.9362 -0.3514  0.0025
              Bcc     0.0162     2.174     0.776     0.725  0.3510  0.9348 -0.0532
 
              Baa    -0.0017    -0.231    -0.082    -0.077  0.8653 -0.4713  0.1710
    25 C(13)  Bbb    -0.0014    -0.187    -0.067    -0.062 -0.1418  0.0971  0.9851
              Bcc     0.0031     0.418     0.149     0.139  0.4809  0.8766 -0.0172
 
              Baa    -0.0016    -0.212    -0.076    -0.071 -0.4834  0.8530 -0.1968
    26 C(13)  Bbb    -0.0014    -0.190    -0.068    -0.063 -0.1162  0.1603  0.9802
              Bcc     0.0030     0.402     0.144     0.134  0.8676  0.4967  0.0216
 
              Baa    -0.0079    -1.058    -0.377    -0.353  0.9949  0.0833 -0.0575
    27 C(13)  Bbb     0.0024     0.316     0.113     0.105  0.0725 -0.1891  0.9793
              Bcc     0.0055     0.742     0.265     0.247 -0.0707  0.9784  0.1942
 
              Baa    -0.0045    -2.376    -0.848    -0.793 -0.1389  0.9875 -0.0750
    28 H(1)   Bbb    -0.0040    -2.137    -0.763    -0.713 -0.4119  0.0113  0.9112
              Bcc     0.0085     4.513     1.611     1.506  0.9006  0.1575  0.4052
 
              Baa    -0.0045    -2.376    -0.848    -0.793  0.1389  0.9875 -0.0750
    29 H(1)   Bbb    -0.0040    -2.137    -0.763    -0.713  0.4119  0.0113  0.9112
              Bcc     0.0085     4.513     1.611     1.506  0.9006 -0.1574 -0.4052
 
              Baa    -0.0021    -1.146    -0.409    -0.382  0.0000  0.9996  0.0293
    30 H(1)   Bbb    -0.0014    -0.720    -0.257    -0.240  0.0000 -0.0293  0.9996
              Bcc     0.0035     1.867     0.666     0.623  1.0000  0.0000  0.0000
 
              Baa    -0.0022    -1.148    -0.410    -0.383  0.9960  0.0786 -0.0427
    31 H(1)   Bbb    -0.0014    -0.746    -0.266    -0.249  0.0420  0.0107  0.9991
              Bcc     0.0035     1.893     0.676     0.632 -0.0789  0.9969 -0.0073
 
              Baa    -0.0022    -1.148    -0.410    -0.383  0.9960 -0.0786  0.0427
    32 H(1)   Bbb    -0.0014    -0.746    -0.266    -0.249 -0.0420  0.0107  0.9991
              Bcc     0.0035     1.893     0.676     0.632  0.0789  0.9969 -0.0073
 
              Baa    -0.0018    -0.961    -0.343    -0.321  0.3494  0.9038  0.2472
    33 H(1)   Bbb    -0.0016    -0.835    -0.298    -0.279 -0.3064 -0.1391  0.9417
              Bcc     0.0034     1.797     0.641     0.599  0.8855 -0.4048  0.2283
 
              Baa    -0.0012    -0.653    -0.233    -0.218  0.3707  0.9264 -0.0657
    34 H(1)   Bbb    -0.0011    -0.562    -0.201    -0.188  0.0991  0.0309  0.9946
              Bcc     0.0023     1.215     0.434     0.405  0.9235 -0.3752 -0.0803
 
              Baa    -0.0011    -0.599    -0.214    -0.200  0.4831  0.8392  0.2495
    35 H(1)   Bbb    -0.0009    -0.502    -0.179    -0.167 -0.2055 -0.1683  0.9641
              Bcc     0.0021     1.101     0.393     0.367  0.8511 -0.5171  0.0912
 
              Baa    -0.0011    -0.607    -0.217    -0.202  0.7271  0.5301 -0.4362
    36 H(1)   Bbb    -0.0010    -0.546    -0.195    -0.182  0.3143  0.3078  0.8980
              Bcc     0.0022     1.153     0.411     0.385 -0.6103  0.7901 -0.0572
 
              Baa    -0.0013    -0.698    -0.249    -0.233  0.8471 -0.4392  0.2992
    37 H(1)   Bbb    -0.0012    -0.621    -0.222    -0.207 -0.1688  0.3116  0.9351
              Bcc     0.0025     1.319     0.471     0.440  0.5039  0.8426 -0.1898
 
              Baa    -0.0013    -0.693    -0.247    -0.231  0.5827  0.2632  0.7689
    38 H(1)   Bbb    -0.0012    -0.663    -0.237    -0.221  0.5225  0.6033 -0.6025
              Bcc     0.0025     1.357     0.484     0.453 -0.6225  0.7528  0.2139
 
              Baa    -0.0011    -0.599    -0.214    -0.200 -0.4831  0.8392  0.2495
    39 H(1)   Bbb    -0.0009    -0.502    -0.179    -0.167  0.2055 -0.1683  0.9641
              Bcc     0.0021     1.101     0.393     0.367  0.8511  0.5171 -0.0912
 
              Baa    -0.0018    -0.961    -0.343    -0.321 -0.3494  0.9038  0.2472
    40 H(1)   Bbb    -0.0016    -0.835    -0.298    -0.279  0.3064 -0.1391  0.9417
              Bcc     0.0034     1.797     0.641     0.599  0.8855  0.4048 -0.2283
 
              Baa    -0.0012    -0.653    -0.233    -0.218 -0.3707  0.9264 -0.0657
    41 H(1)   Bbb    -0.0011    -0.562    -0.201    -0.188 -0.0991  0.0309  0.9946
              Bcc     0.0023     1.215     0.434     0.405  0.9235  0.3752  0.0803
 
              Baa    -0.0013    -0.693    -0.247    -0.231 -0.5827  0.2632  0.7689
    42 H(1)   Bbb    -0.0012    -0.663    -0.237    -0.221 -0.5225  0.6033 -0.6025
              Bcc     0.0025     1.357     0.484     0.453  0.6225  0.7528  0.2139
 
              Baa    -0.0011    -0.607    -0.217    -0.202  0.7271 -0.5301  0.4362
    43 H(1)   Bbb    -0.0010    -0.546    -0.195    -0.182 -0.3143  0.3078  0.8980
              Bcc     0.0022     1.153     0.411     0.385  0.6103  0.7901 -0.0572
 
              Baa    -0.0011    -0.612    -0.218    -0.204  0.8633 -0.4558 -0.2169
    44 H(1)   Bbb    -0.0009    -0.507    -0.181    -0.169  0.1505 -0.1777  0.9725
              Bcc     0.0021     1.119     0.399     0.373  0.4818  0.8722  0.0848
 
              Baa    -0.0011    -0.612    -0.218    -0.204  0.8633  0.4558  0.2169
    45 H(1)   Bbb    -0.0009    -0.507    -0.181    -0.169 -0.1505 -0.1777  0.9725
              Bcc     0.0021     1.119     0.399     0.373 -0.4818  0.8722  0.0848
 
              Baa    -0.0012    -0.642    -0.229    -0.214 -0.4921  0.8271 -0.2714
    46 H(1)   Bbb    -0.0011    -0.589    -0.210    -0.197 -0.2816  0.1437  0.9487
              Bcc     0.0023     1.231     0.439     0.411  0.8237  0.5433  0.1622
 
              Baa    -0.0013    -0.698    -0.249    -0.233  0.8471  0.4392 -0.2992
    47 H(1)   Bbb    -0.0012    -0.621    -0.222    -0.207  0.1688  0.3116  0.9351
              Bcc     0.0025     1.319     0.471     0.440 -0.5039  0.8426 -0.1898
 
              Baa    -0.0012    -0.642    -0.229    -0.214  0.4921  0.8271 -0.2714
    48 H(1)   Bbb    -0.0011    -0.589    -0.210    -0.197  0.2816  0.1438  0.9487
              Bcc     0.0023     1.231     0.439     0.411  0.8237 -0.5433 -0.1622
 
              Baa    -0.0987     7.139     2.547     2.381  0.1819  0.9801  0.0796
    49 O(17)  Bbb    -0.0942     6.819     2.433     2.275  0.9388 -0.1490 -0.3107
              Bcc     0.1929   -13.958    -4.981    -4.656  0.2926 -0.1312  0.9472
 
              Baa    -0.0120    -6.425    -2.293    -2.143  0.7475 -0.6505 -0.1344
    50 H(1)   Bbb    -0.0062    -3.313    -1.182    -1.105  0.6118  0.5954  0.5208
              Bcc     0.0183     9.738     3.475     3.248 -0.2588 -0.4716  0.8430
 
              Baa    -0.0121    -6.433    -2.295    -2.146  0.9538  0.2934 -0.0640
    51 H(1)   Bbb    -0.0062    -3.310    -1.181    -1.104 -0.2928  0.8613 -0.4152
              Bcc     0.0183     9.742     3.476     3.250 -0.0667  0.4148  0.9075
 

 ---------------------------------------------------------------------------------

 1\1\GINC-NID01369\SP\UTPSSTPSS\6-311+G(d,p)\C19H25Co1N4O2(1+,2)\PARKSJ
 M\29-Oct-2015\0\\# tpsstpss/6-311+G(d,p) integral=ultrafine scf=tight\
 \H2O.Co.2.Corrin.H2O\\1,2\O,0,-0.182428,0.206267,-2.306619\H,0,0.06552
 9,-0.609522,-2.7851\H,0,0.392992,0.903937,-2.678368\Co,0,-0.030963,0.,
 -0.000001\N,0,-1.326193,-1.415207,-0.035824\C,0,-1.039803,-2.773733,0.
 034673\C,0,-2.311344,-3.593028,0.168131\C,0,-3.426992,-2.556575,-0.064
 304\C,0,-2.679085,-1.238636,-0.027661\C,0,0.224801,-3.32397,0.015984\C
 ,0,1.405957,-2.546253,-0.096571\N,0,1.366297,-1.22372,-0.145445\C,0,2.
 730415,-0.666532,-0.372121\C,0,3.671073,-1.802138,0.072943\C,0,2.82763
 4,-3.070936,-0.211231\C,0,2.730417,0.666519,0.372125\N,0,1.366303,1.22
 3714,0.145445\C,0,1.405968,2.546247,0.096574\C,0,2.827647,3.070923,0.2
 1124\C,0,3.671081,1.802121,-0.072935\C,0,-3.314357,0.000007,0.000004\C
 ,0,-2.679079,1.238647,0.027666\N,0,-1.326186,1.415212,0.035822\C,0,-1.
 03979,2.773737,-0.03468\C,0,-2.311328,3.593034,-0.168149\C,0,-3.426978
 ,2.556591,0.064317\C,0,0.224816,3.323969,-0.015986\H,0,2.843799,-0.465
 782,-1.452107\H,0,2.843797,0.465768,1.452112\H,0,-4.402474,0.00001,0.0
 00008\H,0,0.317579,4.405354,-0.083599\H,0,0.317559,-4.405356,0.083595\
 H,0,3.870695,1.718408,-1.150872\H,0,4.630925,1.794981,0.454413\H,0,-4.
 22119,-2.593578,0.691038\H,0,3.027942,3.895313,-0.484156\H,0,-2.368654
 ,4.027642,-1.17642\H,0,3.005459,3.4557,1.228105\H,0,-4.221194,2.593596
 ,-0.691005\H,0,3.870685,-1.718423,1.15088\H,0,4.630918,-1.795003,-0.45
 4403\H,0,3.005447,-3.455718,-1.228094\H,0,3.027923,-3.895325,0.484167\
 H,0,-2.332577,4.426171,0.544365\H,0,-2.3326,-4.426145,-0.544407\H,0,-3
 .907606,2.685628,1.045314\H,0,-2.368666,-4.027664,1.176388\H,0,-3.9076
 47,-2.685602,-1.045288\O,0,-0.182445,-0.206261,2.306609\H,0,0.392972,-
 0.903928,2.67837\H,0,0.065503,0.609532,2.785088\\Version=AS64L-G09RevD
 .01\State=2-A\HF=-2491.7648034\S2=0.760704\S2-1=0.\S2A=0.75009\RMSD=8.
 788e-09\Dipole=0.6434627,-0.0000011,0.0000103\Quadrupole=7.0231229,6.5
 908232,-13.613946,0.0000097,-0.0000592,0.388166\PG=C01 [X(C19H25Co1N4O
 2)]\\@


 ABSOLUTISM, OBSOLETISM -- IF IT WORKS, IT'S OUT OF DATE

                          -- STAFFORD BEER
 Job cpu time:       0 days  0 hours  1 minutes 18.3 seconds.
 File lengths (MBytes):  RWF=    529 Int=      0 D2E=      0 Chk=     27 Scr=      1
 Normal termination of Gaussian 09 at Thu Oct 29 10:11:52 2015.
 Initial command:
 /usr/common/usg/g09/d1/g09/l1.exe "/scratch/scratchdirs/parksjm/g09/13505281.hopque01/Gau-717.inp" -scrdir="/scratch/scratchdirs/parksjm/g09/13505281.hopque01/"
 Entering Link 1 = /usr/common/usg/g09/d1/g09/l1.exe PID=       967.
  
 Copyright (c) 1988,1990,1992,1993,1995,1998,2003,2009,2013,
            Gaussian, Inc.  All Rights Reserved.
  
 This is part of the Gaussian(R) 09 program.  It is based on
 the Gaussian(R) 03 system (copyright 2003, Gaussian, Inc.),
 the Gaussian(R) 98 system (copyright 1998, Gaussian, Inc.),
 the Gaussian(R) 94 system (copyright 1995, Gaussian, Inc.),
 the Gaussian 92(TM) system (copyright 1992, Gaussian, Inc.),
 the Gaussian 90(TM) system (copyright 1990, Gaussian, Inc.),
 the Gaussian 88(TM) system (copyright 1988, Gaussian, Inc.),
 the Gaussian 86(TM) system (copyright 1986, Carnegie Mellon
 University), and the Gaussian 82(TM) system (copyright 1983,
 Carnegie Mellon University). Gaussian is a federally registered
 trademark of Gaussian, Inc.
  
 This software contains proprietary and confidential information,
 including trade secrets, belonging to Gaussian, Inc.
  
 This software is provided under written license and may be
 used, copied, transmitted, or stored only in accord with that
 written license.
  
 The following legend is applicable only to US Government
 contracts under FAR:
  
                    RESTRICTED RIGHTS LEGEND
  
 Use, reproduction and disclosure by the US Government is
 subject to restrictions as set forth in subparagraphs (a)
 and (c) of the Commercial Computer Software - Restricted
 Rights clause in FAR 52.227-19.
  
 Gaussian, Inc.
 340 Quinnipiac St., Bldg. 40, Wallingford CT 06492
  
  
 ---------------------------------------------------------------
 Warning -- This program may not be used in any manner that
 competes with the business of Gaussian, Inc. or will provide
 assistance to any competitor of Gaussian, Inc.  The licensee
 of this program is prohibited from giving any competitor of
 Gaussian, Inc. access to this program.  By using this program,
 the user acknowledges that Gaussian, Inc. is engaged in the
 business of creating and licensing software in the field of
 computational chemistry and represents and warrants to the
 licensee that it is not a competitor of Gaussian, Inc. and that
 it will not use this program in any manner prohibited above.
 ---------------------------------------------------------------
  

 Cite this work as:
 Gaussian 09, Revision D.01,
 M. J. Frisch, G. W. Trucks, H. B. Schlegel, G. E. Scuseria, 
 M. A. Robb, J. R. Cheeseman, G. Scalmani, V. Barone, B. Mennucci, 
 G. A. Petersson, H. Nakatsuji, M. Caricato, X. Li, H. P. Hratchian, 
 A. F. Izmaylov, J. Bloino, G. Zheng, J. L. Sonnenberg, M. Hada, 
 M. Ehara, K. Toyota, R. Fukuda, J. Hasegawa, M. Ishida, T. Nakajima, 
 Y. Honda, O. Kitao, H. Nakai, T. Vreven, J. A. Montgomery, Jr., 
 J. E. Peralta, F. Ogliaro, M. Bearpark, J. J. Heyd, E. Brothers, 
 K. N. Kudin, V. N. Staroverov, T. Keith, R. Kobayashi, J. Normand, 
 K. Raghavachari, A. Rendell, J. C. Burant, S. S. Iyengar, J. Tomasi, 
 M. Cossi, N. Rega, J. M. Millam, M. Klene, J. E. Knox, J. B. Cross, 
 V. Bakken, C. Adamo, J. Jaramillo, R. Gomperts, R. E. Stratmann, 
 O. Yazyev, A. J. Austin, R. Cammi, C. Pomelli, J. W. Ochterski, 
 R. L. Martin, K. Morokuma, V. G. Zakrzewski, G. A. Voth, 
 P. Salvador, J. J. Dannenberg, S. Dapprich, A. D. Daniels, 
 O. Farkas, J. B. Foresman, J. V. Ortiz, J. Cioslowski, 
 and D. J. Fox, Gaussian, Inc., Wallingford CT, 2013.
 
[...]
    32   Atom       -0.002128      0.003523     -0.001395
    33   Atom        0.002280     -0.000950     -0.001329
    34   Atom        0.001766     -0.000730     -0.001036
    35   Atom        0.001189     -0.000274     -0.000915
    36   Atom        0.000101      0.000935     -0.001036
    37   Atom       -0.000340      0.001381     -0.001041
    38   Atom        0.000204      0.000905     -0.001108
    39   Atom        0.001189     -0.000274     -0.000915
    40   Atom        0.002280     -0.000950     -0.001329
    41   Atom        0.001766     -0.000730     -0.001036
    42   Atom        0.000204      0.000905     -0.001108
    43   Atom        0.000101      0.000935     -0.001036
    44   Atom       -0.000386      0.001318     -0.000933
    45   Atom       -0.000386      0.001318     -0.000933
    46   Atom        0.001191     -0.000177     -0.001014
    47   Atom       -0.000340      0.001381     -0.001041
    48   Atom        0.001191     -0.000177     -0.001014
    49   Atom       -0.078740     -0.097887      0.176626
    50   Atom       -0.007685     -0.003198      0.010882
    51   Atom       -0.011542     -0.002189      0.013731
 --------------------------------------------------------
                        XY            XZ            YZ
 --------------------------------------------------------
     1   Atom        0.010538     -0.075370     -0.036523
     2   Atom        0.002564      0.001180      0.009335
     3   Atom       -0.006152      0.004752     -0.010177
     4   Atom       -0.000002      0.000007     -0.318345
     5   Atom       -0.015005     -0.001881      0.002400
     6   Atom       -0.004839      0.000611     -0.001775
     7   Atom       -0.002078      0.000105     -0.000044
     8   Atom       -0.001999     -0.000070      0.000078
     9   Atom       -0.005964      0.000211      0.000870
    10   Atom        0.001071     -0.000563      0.000657
    11   Atom        0.006123      0.002239     -0.000915
    12   Atom        0.011208     -0.001823      0.001650
    13   Atom        0.005399      0.001374      0.000720
    14   Atom        0.002383     -0.000041     -0.000002
    15   Atom        0.001947      0.000071      0.000068
    16   Atom       -0.005399     -0.001374      0.000720
    17   Atom       -0.011208      0.001823      0.001650
    18   Atom       -0.006123     -0.002239     -0.000915
    19   Atom       -0.001947     -0.000071      0.000068
    20   Atom       -0.002383      0.000041     -0.000002
    21   Atom        0.000000      0.000000     -0.000350
    22   Atom        0.005964     -0.000211      0.000870
    23   Atom        0.015005      0.001881      0.002400
    24   Atom        0.004839     -0.000611     -0.001775
    25   Atom        0.002078     -0.000105     -0.000044
    26   Atom        0.001999      0.000070      0.000078
    27   Atom       -0.001071      0.000563      0.000657
    28   Atom        0.001833      0.004552      0.000832
    29   Atom       -0.001833     -0.004552      0.000832
    30   Atom        0.000000      0.000000     -0.000024
    31   Atom       -0.000460      0.000036     -0.000031
    32   Atom        0.000460     -0.000036     -0.000031
    33   Atom       -0.001847      0.000982     -0.000512
    34   Atom       -0.001217     -0.000242      0.000112
    35   Atom       -0.001380      0.000205     -0.000172
    36   Atom       -0.001581      0.000147     -0.000117
    37   Atom        0.001604     -0.000384     -0.000558
    38   Atom       -0.001786     -0.000531      0.000599
    39   Atom        0.001380     -0.000205     -0.000172
    40   Atom        0.001847     -0.000982     -0.000512
    41   Atom        0.001217      0.000242      0.000112
    42   Atom        0.001786      0.000531      0.000599
    43   Atom        0.001581     -0.000147     -0.000117
    44   Atom        0.001365      0.000162      0.000206
    45   Atom       -0.001365     -0.000162      0.000206
    46   Atom        0.001554      0.000434      0.000312
    47   Atom       -0.001604      0.000384     -0.000558
    48   Atom       -0.001554     -0.000434      0.000312
    49   Atom       -0.010538      0.075373     -0.036522
    50   Atom        0.006152     -0.004752     -0.010177
    51   Atom       -0.002564     -0.001180      0.009336
 --------------------------------------------------------


 ---------------------------------------------------------------------------------
              Anisotropic Spin Dipole Couplings in Principal Axis System
 ---------------------------------------------------------------------------------

       Atom             a.u.   MegaHertz   Gauss  10(-4) cm-1        Axes

              Baa    -0.1028     7.438     2.654     2.481 -0.1810  0.9803  0.0793
     1 O(17)  Bbb    -0.0992     7.181     2.562     2.395  0.9481  0.1524  0.2792
              Bcc     0.2020   -14.619    -5.216    -4.876 -0.2616 -0.1257  0.9570
 
              Baa    -0.0123    -6.550    -2.337    -2.185  0.9510 -0.3023  0.0654
     2 H(1)   Bbb    -0.0059    -3.158    -1.127    -1.053  0.3007  0.8543 -0.4239
              Bcc     0.0182     9.708     3.464     3.238  0.0723  0.4228  0.9033
 
              Baa    -0.0123    -6.540    -2.334    -2.182  0.7415  0.6569  0.1366
     3 H(1)   Bbb    -0.0059    -3.158    -1.127    -1.053  0.6154 -0.5849 -0.5284
              Bcc     0.0182     9.698     3.461     3.235  0.2672 -0.4759  0.8379
 
              Baa    -1.4174  -178.987   -63.867   -59.704  1.0000  0.0000  0.0000
     4 Co(59) Bbb    -1.2890  -162.780   -58.084   -54.298  0.0000  0.9968  0.0799
              Bcc     2.7064   341.767   121.951   114.001  0.0000 -0.0799  0.9968
 
              Baa    -0.0144    -0.555    -0.198    -0.185  0.7462  0.6655 -0.0150
     5 N(14)  Bbb    -0.0020    -0.076    -0.027    -0.025  0.1231 -0.1158  0.9856
              Bcc     0.0164     0.631     0.225     0.210 -0.6542  0.7373  0.1684
 
              Baa    -0.0181    -2.427    -0.866    -0.810 -0.0168  0.0518  0.9985
     6 C(13)  Bbb     0.0016     0.214     0.076     0.071  0.9372  0.3488 -0.0024
              Bcc     0.0165     2.213     0.790     0.738 -0.3484  0.9358 -0.0544
 
              Baa    -0.0017    -0.235    -0.084    -0.078  0.8558  0.4735 -0.2083
     7 C(13)  Bbb    -0.0014    -0.188    -0.067    -0.063  0.1725  0.1184  0.9779
              Bcc     0.0032     0.423     0.151     0.141 -0.4877  0.8728 -0.0197
 
              Baa    -0.0016    -0.213    -0.076    -0.071  0.4709  0.8328 -0.2912
     8 C(13)  Bbb    -0.0015    -0.197    -0.070    -0.066  0.1632  0.2421  0.9564
              Bcc     0.0031     0.410     0.146     0.137  0.8670 -0.4979 -0.0219
 
              Baa    -0.0294    -3.950    -1.409    -1.318 -0.0072 -0.0231  0.9997
     9 C(13)  Bbb     0.0072     0.962     0.343     0.321  0.4392  0.8981  0.0239
              Bcc     0.0223     2.988     1.066     0.997  0.8984 -0.4392 -0.0037
 
              Baa    -0.0080    -1.072    -0.382    -0.357  0.9948 -0.0833  0.0581
    10 C(13)  Bbb     0.0025     0.336     0.120     0.112 -0.0740 -0.2036  0.9763
              Bcc     0.0055     0.736     0.263     0.245  0.0695  0.9755  0.2087
 
              Baa    -0.0211    -2.831    -1.010    -0.944 -0.0905  0.0411  0.9950
    11 C(13)  Bbb     0.0033     0.440     0.157     0.147  0.8781 -0.4681  0.0992
              Bcc     0.0178     2.392     0.853     0.798  0.4698  0.8827  0.0063
 
              Baa    -0.0168    -0.648    -0.231    -0.216  0.8363 -0.5398  0.0956
    12 N(14)  Bbb     0.0079     0.304     0.108     0.101  0.5235  0.7347 -0.4315
              Bcc     0.0089     0.343     0.123     0.115  0.1627  0.4109  0.8970
 
              Baa    -0.0064    -0.854    -0.305    -0.285 -0.3288  0.9387 -0.1040
    13 C(13)  Bbb    -0.0044    -0.584    -0.208    -0.195 -0.1314  0.0636  0.9893
              Bcc     0.0107     1.438     0.513     0.480  0.9352  0.3389  0.1024
 
              Baa    -0.0022    -0.299    -0.107    -0.100 -0.4381  0.8986 -0.0255
    14 C(13)  Bbb    -0.0016    -0.214    -0.076    -0.071 -0.0049  0.0260  0.9996
              Bcc     0.0038     0.513     0.183     0.171  0.8989  0.4381 -0.0070
 
              Baa    -0.0016    -0.210    -0.075    -0.070  0.8384 -0.5425 -0.0534
    15 C(13)  Bbb    -0.0011    -0.152    -0.054    -0.051  0.0312 -0.0500  0.9983
              Bcc     0.0027     0.363     0.129     0.121  0.5442  0.8386  0.0250
 
              Baa    -0.0064    -0.854    -0.305    -0.285  0.3288  0.9387 -0.1040
    16 C(13)  Bbb    -0.0044    -0.584    -0.208    -0.195  0.1314  0.0636  0.9893
              Bcc     0.0107     1.438     0.513     0.480  0.9352 -0.3389 -0.1024
 
              Baa    -0.0168    -0.648    -0.231    -0.216  0.8363  0.5398 -0.0956
    17 N(14)  Bbb     0.0079     0.304     0.108     0.101 -0.5235  0.7347 -0.4315
              Bcc     0.0089     0.343     0.123     0.115 -0.1627  0.4109  0.8970
 
              Baa    -0.0211    -2.831    -1.010    -0.944  0.0905  0.0411  0.9950
    18 C(13)  Bbb     0.0033     0.440     0.157     0.147  0.8781  0.4681 -0.0992
              Bcc     0.0178     2.392     0.853     0.798 -0.4698  0.8827  0.0063
 
              Baa    -0.0016    -0.210    -0.075    -0.070  0.8384  0.5425  0.0534
    19 C(13)  Bbb    -0.0011    -0.152    -0.054    -0.051 -0.0312 -0.0500  0.9983
              Bcc     0.0027     0.363     0.129     0.121 -0.5442  0.8386  0.0250
 
              Baa    -0.0022    -0.299    -0.107    -0.100  0.4381  0.8986 -0.0255
    20 C(13)  Bbb    -0.0016    -0.214    -0.076    -0.071  0.0049  0.0260  0.9996
              Bcc     0.0038     0.513     0.183     0.171  0.8989 -0.4381  0.0070
 
              Baa    -0.0078    -1.053    -0.376    -0.351  0.0000  0.9993  0.0378
    21 C(13)  Bbb     0.0014     0.190     0.068     0.063  0.0000 -0.0378  0.9993
              Bcc     0.0064     0.863     0.308     0.288  1.0000  0.0000  0.0000
 
              Baa    -0.0294    -3.950    -1.409    -1.318  0.0072 -0.0231  0.9997
    22 C(13)  Bbb     0.0072     0.962     0.343     0.321 -0.4392  0.8981  0.0239
              Bcc     0.0223     2.988     1.066     0.997  0.8984  0.4392  0.0037
 
              Baa    -0.0144    -0.555    -0.198    -0.185  0.7462 -0.6655  0.0150
    23 N(14)  Bbb    -0.0020    -0.076    -0.027    -0.025 -0.1231 -0.1158  0.9856
              Bcc     0.0164     0.631     0.225     0.210  0.6542  0.7373  0.1684
 
              Baa    -0.0181    -2.427    -0.866    -0.810  0.0168  0.0518  0.9985
    24 C(13)  Bbb     0.0016     0.214     0.076     0.071  0.9372 -0.3488  0.0023
              Bcc     0.0165     2.213     0.790     0.738  0.3484  0.9358 -0.0544
 
              Baa    -0.0017    -0.235    -0.084    -0.078  0.8558 -0.4735  0.2083
    25 C(13)  Bbb    -0.0014    -0.188    -0.067    -0.063 -0.1725  0.1184  0.9779
              Bcc     0.0032     0.423     0.151     0.141  0.4877  0.8728 -0.0197
 
              Baa    -0.0016    -0.213    -0.076    -0.071 -0.4709  0.8328 -0.2912
    26 C(13)  Bbb    -0.0015    -0.197    -0.070    -0.066 -0.1632  0.2421  0.9564
              Bcc     0.0031     0.410     0.146     0.137  0.8670  0.4979  0.0219
 
              Baa    -0.0080    -1.072    -0.382    -0.357  0.9948  0.0833 -0.0581
    27 C(13)  Bbb     0.0025     0.336     0.120     0.112  0.0740 -0.2036  0.9763
              Bcc     0.0055     0.736     0.263     0.245 -0.0695  0.9755  0.2087
 
              Baa    -0.0045    -2.382    -0.850    -0.794 -0.1382  0.9874 -0.0769
    28 H(1)   Bbb    -0.0040    -2.140    -0.764    -0.714 -0.4123  0.0132  0.9110
              Bcc     0.0085     4.522     1.614     1.508  0.9005  0.1576  0.4052
 
              Baa    -0.0045    -2.382    -0.850    -0.794  0.1382  0.9874 -0.0769
    29 H(1)   Bbb    -0.0040    -2.140    -0.764    -0.714  0.4123  0.0132  0.9110
              Bcc     0.0085     4.522     1.614     1.508  0.9005 -0.1575 -0.4052
 
              Baa    -0.0022    -1.163    -0.415    -0.388  0.0000  0.9996  0.0284
    30 H(1)   Bbb    -0.0013    -0.707    -0.252    -0.236  0.0000 -0.0284  0.9996
              Bcc     0.0035     1.869     0.667     0.624  1.0000  0.0000  0.0000
 
              Baa    -0.0022    -1.156    -0.413    -0.386  0.9958  0.0802 -0.0436
    31 H(1)   Bbb    -0.0014    -0.743    -0.265    -0.248  0.0429  0.0103  0.9990
              Bcc     0.0036     1.900     0.678     0.634 -0.0806  0.9967 -0.0068
 
              Baa    -0.0022    -1.156    -0.413    -0.386  0.9958 -0.0802  0.0436
    32 H(1)   Bbb    -0.0014    -0.743    -0.265    -0.248 -0.0429  0.0103  0.9990
              Bcc     0.0036     1.900     0.678     0.634  0.0806  0.9967 -0.0068
 
              Baa    -0.0018    -0.963    -0.344    -0.321  0.3464  0.9023  0.2564
    33 H(1)   Bbb    -0.0016    -0.839    -0.299    -0.280 -0.3102 -0.1478  0.9391
              Bcc     0.0034     1.802     0.643     0.601  0.8853 -0.4049  0.2287
 
              Baa    -0.0012    -0.654    -0.233    -0.218  0.3707  0.9259 -0.0727
    34 H(1)   Bbb    -0.0011    -0.564    -0.201    -0.188  0.1014  0.0375  0.9941
              Bcc     0.0023     1.218     0.435     0.406  0.9232 -0.3759 -0.0800
 
              Baa    -0.0011    -0.595    -0.212    -0.198  0.4854  0.8439  0.2284
    35 H(1)   Bbb    -0.0009    -0.495    -0.177    -0.165 -0.1926 -0.1517  0.9695
              Bcc     0.0020     1.090     0.389     0.364  0.8528 -0.5146  0.0889
 
              Baa    -0.0011    -0.608    -0.217    -0.203  0.7261  0.5286 -0.4397
    36 H(1)   Bbb    -0.0010    -0.547    -0.195    -0.182  0.3175  0.3094  0.8963
              Bcc     0.0022     1.154     0.412     0.385 -0.6099  0.7904 -0.0568
 
              Baa    -0.0013    -0.700    -0.250    -0.234  0.8488 -0.4469  0.2826
    37 H(1)   Bbb    -0.0012    -0.618    -0.220    -0.206 -0.1533  0.3034  0.9404
              Bcc     0.0025     1.318     0.470     0.440  0.5060  0.8415 -0.1890
 
              Baa    -0.0013    -0.696    -0.248    -0.232  0.5682  0.2466  0.7851
    38 H(1)   Bbb    -0.0012    -0.664    -0.237    -0.221  0.5387  0.6097 -0.5814
              Bcc     0.0025     1.360     0.485     0.454 -0.6220  0.7533  0.2136
 
              Baa    -0.0011    -0.595    -0.212    -0.198 -0.4854  0.8439  0.2284
    39 H(1)   Bbb    -0.0009    -0.495    -0.177    -0.165  0.1925 -0.1517  0.9695
              Bcc     0.0020     1.090     0.389     0.364  0.8528  0.5146 -0.0889
 
              Baa    -0.0018    -0.963    -0.344    -0.321 -0.3464  0.9023  0.2564
    40 H(1)   Bbb    -0.0016    -0.839    -0.299    -0.280  0.3102 -0.1478  0.9391
              Bcc     0.0034     1.802     0.643     0.601  0.8853  0.4049 -0.2287
 
              Baa    -0.0012    -0.654    -0.233    -0.218 -0.3707  0.9259 -0.0727
    41 H(1)   Bbb    -0.0011    -0.564    -0.201    -0.188 -0.1014  0.0375  0.9941
              Bcc     0.0023     1.218     0.435     0.406  0.9232  0.3759  0.0800
 
              Baa    -0.0013    -0.696    -0.248    -0.232 -0.5682  0.2466  0.7851
    42 H(1)   Bbb    -0.0012    -0.664    -0.237    -0.221 -0.5387  0.6097 -0.5814
              Bcc     0.0025     1.360     0.485     0.454  0.6220  0.7533  0.2136
 
              Baa    -0.0011    -0.608    -0.217    -0.203  0.7261 -0.5286  0.4397
    43 H(1)   Bbb    -0.0010    -0.547    -0.195    -0.182 -0.3175  0.3094  0.8963
              Bcc     0.0022     1.154     0.412     0.385  0.6099  0.7904 -0.0568
 
              Baa    -0.0012    -0.614    -0.219    -0.205  0.8639 -0.4605 -0.2042
    44 H(1)   Bbb    -0.0009    -0.505    -0.180    -0.168  0.1387 -0.1723  0.9752
              Bcc     0.0021     1.119     0.399     0.373  0.4842  0.8708  0.0850
 
              Baa    -0.0012    -0.614    -0.219    -0.205  0.8639  0.4605  0.2042
    45 H(1)   Bbb    -0.0009    -0.505    -0.180    -0.168 -0.1387 -0.1724  0.9752
              Bcc     0.0021     1.119     0.399     0.373 -0.4842  0.8708  0.0850
 
              Baa    -0.0012    -0.639    -0.228    -0.213 -0.4993  0.8333 -0.2373
    46 H(1)   Bbb    -0.0011    -0.584    -0.208    -0.195 -0.2613  0.1164  0.9582
              Bcc     0.0023     1.223     0.436     0.408  0.8261  0.5404  0.1596
 
              Baa    -0.0013    -0.700    -0.250    -0.234  0.8488  0.4469 -0.2826
    47 H(1)   Bbb    -0.0012    -0.618    -0.220    -0.206  0.1533  0.3034  0.9404
              Bcc     0.0025     1.318     0.470     0.440 -0.5061  0.8415 -0.1890
 
              Baa    -0.0012    -0.639    -0.228    -0.213  0.4993  0.8333 -0.2374
    48 H(1)   Bbb    -0.0011    -0.584    -0.208    -0.195  0.2613  0.1164  0.9582
              Bcc     0.0023     1.223     0.436     0.408  0.8261 -0.5404 -0.1596
 
              Baa    -0.1028     7.438     2.654     2.481  0.1810  0.9803  0.0793
    49 O(17)  Bbb    -0.0992     7.181     2.562     2.395  0.9481 -0.1524 -0.2792
              Bcc     0.2020   -14.619    -5.216    -4.876  0.2616 -0.1257  0.9569
 
              Baa    -0.0123    -6.541    -2.334    -2.182  0.7415 -0.6569 -0.1366
    50 H(1)   Bbb    -0.0059    -3.158    -1.127    -1.053  0.6154  0.5849  0.5284
              Bcc     0.0182     9.698     3.461     3.235 -0.2672 -0.4759  0.8380
 
              Baa    -0.0123    -6.550    -2.337    -2.185  0.9510  0.3023 -0.0654
    51 H(1)   Bbb    -0.0059    -3.158    -1.127    -1.053 -0.3007  0.8543 -0.4239
              Bcc     0.0182     9.708     3.464     3.238 -0.0723  0.4228  0.9033
 

 ---------------------------------------------------------------------------------

 1\1\GINC-NID01369\SP\UTPSSTPSS\Gen\C19H25Co1N4O2(1+,2)\PARKSJM\29-Oct-
 2015\0\\# tpsstpss chkbasis integral=ultrafine scf=tight geom=check sc
 rf=(smd,solvent=water, read)\\H2O.Co.2.Corrin.H2O\\1,2\O,0,-0.182428,0
 .206267,-2.306619\H,0,0.065529,-0.609522,-2.7851\H,0,0.392992,0.903937
 ,-2.678368\Co,0,-0.030963,0.,-0.000001\N,0,-1.326193,-1.415207,-0.0358
 24\C,0,-1.039803,-2.773733,0.034673\C,0,-2.311344,-3.593028,0.168131\C
 ,0,-3.426992,-2.556575,-0.064304\C,0,-2.679085,-1.238636,-0.027661\C,0
 ,0.224801,-3.32397,0.015984\C,0,1.405957,-2.546253,-0.096571\N,0,1.366
 297,-1.22372,-0.145445\C,0,2.730415,-0.666532,-0.372121\C,0,3.671073,-
 1.802138,0.072943\C,0,2.827634,-3.070936,-0.211231\C,0,2.730417,0.6665
 19,0.372125\N,0,1.366303,1.223714,0.145445\C,0,1.405968,2.546247,0.096
 574\C,0,2.827647,3.070923,0.21124\C,0,3.671081,1.802121,-0.072935\C,0,
 -3.314357,0.000007,0.000004\C,0,-2.679079,1.238647,0.027666\N,0,-1.326
 186,1.415212,0.035822\C,0,-1.03979,2.773737,-0.03468\C,0,-2.311328,3.5
 93034,-0.168149\C,0,-3.426978,2.556591,0.064317\C,0,0.224816,3.323969,
 -0.015986\H,0,2.843799,-0.465782,-1.452107\H,0,2.843797,0.465768,1.452
 112\H,0,-4.402474,0.00001,0.000008\H,0,0.317579,4.405354,-0.083599\H,0
 ,0.317559,-4.405356,0.083595\H,0,3.870695,1.718408,-1.150872\H,0,4.630
 925,1.794981,0.454413\H,0,-4.22119,-2.593578,0.691038\H,0,3.027942,3.8
 95313,-0.484156\H,0,-2.368654,4.027642,-1.17642\H,0,3.005459,3.4557,1.
 228105\H,0,-4.221194,2.593596,-0.691005\H,0,3.870685,-1.718423,1.15088
 \H,0,4.630918,-1.795003,-0.454403\H,0,3.005447,-3.455718,-1.228094\H,0
 ,3.027923,-3.895325,0.484167\H,0,-2.332577,4.426171,0.544365\H,0,-2.33
 26,-4.426145,-0.544407\H,0,-3.907606,2.685628,1.045314\H,0,-2.368666,-
 4.027664,1.176388\H,0,-3.907647,-2.685602,-1.045288\O,0,-0.182445,-0.2
 06261,2.306609\H,0,0.392972,-0.903928,2.67837\H,0,0.065503,0.609532,2.
 785088\\Version=AS64L-G09RevD.01\State=2-A\HF=-2491.8274202\S2=0.76131
 5\S2-1=0.\S2A=0.750099\RMSD=1.618e-09\Dipole=1.3637724,0.0000022,0.000
 0151\Quadrupole=6.0637923,6.0713143,-12.1351066,0.0000101,-0.0000814,0
 .564891\PG=C01 [X(C19H25Co1N4O2)]\\@


 ROSE IS A RED
 TY COBB IS BLUE
 'CAUSE PETE JUST HIT
 NO. 4592.
 Job cpu time:       0 days  0 hours  1 minutes 47.2 seconds.
 File lengths (MBytes):  RWF=    720 Int=      0 D2E=      0 Chk=     29 Scr=      1
 Normal termination of Gaussian 09 at Thu Oct 29 10:44:43 2015.
