 Entering GApplication 60447699 resources: utime ~44607s, stime ~1255s, Rss ~790348, inblocks ~25304149, outblocks ~6218191
cp2.com
 Output=/global/homes/s/shosty/tpss/H2O.Co.2.Corrin.H2O/H2O.Co.2.Corrin.H2O.tpss.631gs.cp2.log
 Initial command:
 /usr/common/usg/g09/d1/g09/l1.exe "/scratch/scratchdirs/shosty/g09/13526456.hopque01/Gau-7760.inp" -scrdir="/scratch/scratchdirs/shosty/g09/13526456.hopque01/"
 Entering Link 1 = /usr/common/usg/g09/d1/g09/l1.exe PID=      7761.
  
 Copyright (c) 1988,1990,1992,1993,1995,1998,2003,2009,2013,
            Gaussian, Inc.  All Rights Reserved.
  
 This is part of the Gaussian(R) 09 program.  It is based on
 the Gaussian(R) 03 system (copyright 2003, Gaussian, Inc.),
 the Gaussian(R) 98 system (copyright 1998, Gaussian, Inc.),
 the Gaussian(R) 94 system (copyright 1995, Gaussian, Inc.),
 the Gaussian 92(TM) system (copyright 1992, Gaussian, Inc.),
 the Gaussian 90(TM) system (copyright 1990, Gaussian, Inc.),
 the Gaussian 88(TM) system (copyright 1988, Gaussian, Inc.),
 the Gaussian 86(TM) system (copyright 1986, Carnegie Mellon
 University), and the Gaussian 82(TM) system (copyright 1983,
 Carnegie Mellon University). Gaussian is a federally registered
 trademark of Gaussian, Inc.
  
 This software contains proprietary and confidential information,
 including trade secrets, belonging to Gaussian, Inc.
  
 This software is provided under written license and may be
 used, copied, transmitted, or stored only in accord with that
 written license.
  
 The following legend is applicable only to US Government
 contracts under FAR:
  
                    RESTRICTED RIGHTS LEGEND
  
 Use, reproduction and disclosure by the US Government is
 subject to restrictions as set forth in subparagraphs (a)
 and (c) of the Commercial Computer Software - Restricted
 Rights clause in FAR 52.227-19.
  
 Gaussian, Inc.
 340 Quinnipiac St., Bldg. 40, Wallingford CT 06492
  
  
 ---------------------------------------------------------------
 Warning -- This program may not be used in any manner that
 competes with the business of Gaussian, Inc. or will provide
 assistance to any competitor of Gaussian, Inc.  The licensee
 of this program is prohibited from giving any competitor of
 Gaussian, Inc. access to this program.  By using this program,
 the user acknowledges that Gaussian, Inc. is engaged in the
 business of creating and licensing software in the field of
 computational chemistry and represents and warrants to the
 licensee that it is not a competitor of Gaussian, Inc. and that
 it will not use this program in any manner prohibited above.
 ---------------------------------------------------------------
  

 Cite this work as:
 Gaussian 09, Revision D.01,
 M. J. Frisch, G. W. Trucks, H. B. Schlegel, G. E. Scuseria, 
 M. A. Robb, J. R. Cheeseman, G. Scalmani, V. Barone, B. Mennucci, 
 G. A. Petersson, H. Nakatsuji, M. Caricato, X. Li, H. P. Hratchian, 
 A. F. Izmaylov, J. Bloino, G. Zheng, J. L. Sonnenberg, M. Hada, 
 M. Ehara, K. Toyota, R. Fukuda, J. Hasegawa, M. Ishida, T. Nakajima, 
 Y. Honda, O. Kitao, H. Nakai, T. Vreven, J. A. Montgomery, Jr., 
 J. E. Peralta, F. Ogliaro, M. Bearpark, J. J. Heyd, E. Brothers, 
 K. N. Kudin, V. N. Staroverov, T. Keith, R. Kobayashi, J. Normand, 
 K. Raghavachari, A. Rendell, J. C. Burant, S. S. Iyengar, J. Tomasi, 
 M. Cossi, N. Rega, J. M. Millam, M. Klene, J. E. Knox, J. B. Cross, 
 V. Bakken, C. Adamo, J. Jaramillo, R. Gomperts, R. E. Stratmann, 
 O. Yazyev, A. J. Austin, R. Cammi, C. Pomelli, J. W. Ochterski, 
 R. L. Martin, K. Morokuma, V. G. Zakrzewski, G. A. Voth, 
 P. Salvador, J. J. Dannenberg, S. Dapprich, A. D. Daniels, 
 O. Farkas, J. B. Foresman, J. V. Ortiz, J. Cioslowski, 
 and D. J. Fox, Gaussian, Inc., Wallingford CT, 2013.
 
 ******************************************
 Gaussian 09:  AS64L-G09RevD.01 24-Apr-2013
                 2-Nov-2015 
 ******************************************
 %nproc=24
 Will use up to   24 processors via shared memory.
 %chk=H2O.Co.2.Corrin.H2O.chk
 %mem=7000mb
 ---------------------------------------------------------------
 # tpsstpss/6-31G(d) integral=ultrafine scf=tight counterpoise=2
 ---------------------------------------------------------------
 1/38=1,62=2/1;
 2/12=2,17=6,18=5,40=1/2;
 1/38=1,53=2,62=2,63=1/22;
 3/5=1,6=6,7=1,11=2,16=1,25=1,30=1,74=2523,75=-5/1,2,3;
 4//1;
 5/5=2,32=2,38=5/2;
 6/7=2,8=2,9=2,10=2,28=1/1;
 1/53=2,62=2,63=1/22;
 3/5=7,6=11,7=1,11=2,16=1,25=1,30=1,74=2523,75=-5,82=7/1,2,3;
 4//1;
 5/5=2,32=2,38=5/2;
 6/7=2,8=2,9=2,10=2,28=1/1;
 1/53=2,62=2,63=1/22(-4);
 99/5=1,9=1/99;
 -------------------
 H2O.Co.2.Corrin.H2O
 -------------------
 Symbolic Z-matrix:
 Charge =  1 Multiplicity = 2 in supermolecule
 Charge =  0 Multiplicity = 1 in fragment      1.
 Charge =  1 Multiplicity = 2 in fragment      2.
 O(Fragment=1)        -0.18243   0.20627  -2.30662 
 H(Fragment=1)         0.06553  -0.60952  -2.7851 
 H(Fragment=1)         0.39299   0.90394  -2.67837 
 Co(Fragment=2)       -0.03096   0.       0. 
 N(Fragment=2)        -1.32619  -1.41521  -0.03582 
 C(Fragment=2)        -1.0398   -2.77373   0.03467 
 C(Fragment=2)        -2.31134  -3.59303   0.16813 
 C(Fragment=2)        -3.42699  -2.55658  -0.0643 
 C(Fragment=2)        -2.67909  -1.23864  -0.02766 
 C(Fragment=2)         0.2248   -3.32397   0.01598 
 C(Fragment=2)         1.40596  -2.54625  -0.09657 
 N(Fragment=2)         1.3663   -1.22372  -0.14545 
 C(Fragment=2)         2.73042  -0.66653  -0.37212 
 C(Fragment=2)         3.67107  -1.80214   0.07294 
 C(Fragment=2)         2.82763  -3.07094  -0.21123 
 C(Fragment=2)         2.73042   0.66652   0.37213 
 N(Fragment=2)         1.3663    1.22371   0.14545 
 C(Fragment=2)         1.40597   2.54625   0.09657 
 C(Fragment=2)         2.82765   3.07092   0.21124 
 C(Fragment=2)         3.67108   1.80212  -0.07294 
 C(Fragment=2)        -3.31436   0.00001   0. 
 C(Fragment=2)        -2.67908   1.23865   0.02767 
 N(Fragment=2)        -1.32619   1.41521   0.03582 
 C(Fragment=2)        -1.03979   2.77374  -0.03468 
 C(Fragment=2)        -2.31133   3.59303  -0.16815 
 C(Fragment=2)        -3.42698   2.55659   0.06432 
 C(Fragment=2)         0.22482   3.32397  -0.01599 
 H(Fragment=2)         2.8438   -0.46578  -1.45211 
 H(Fragment=2)         2.8438    0.46577   1.45211 
 H(Fragment=2)        -4.40247   0.00001   0.00001 
 H(Fragment=2)         0.31758   4.40535  -0.0836 
 H(Fragment=2)         0.31756  -4.40536   0.0836 
 H(Fragment=2)         3.8707    1.71841  -1.15087 
 H(Fragment=2)         4.63093   1.79498   0.45441 
 H(Fragment=2)        -4.22119  -2.59358   0.69104 
 H(Fragment=2)         3.02794   3.89531  -0.48416 
 H(Fragment=2)        -2.36865   4.02764  -1.17642 
 H(Fragment=2)         3.00546   3.4557    1.22811 
 H(Fragment=2)        -4.22119   2.5936   -0.69101 
 H(Fragment=2)         3.87069  -1.71842   1.15088 
 H(Fragment=2)         4.63092  -1.795    -0.4544 
 H(Fragment=2)         3.00545  -3.45572  -1.22809 
 H(Fragment=2)         3.02792  -3.89533   0.48417 
 H(Fragment=2)        -2.33258   4.42617   0.54437 
 H(Fragment=2)        -2.3326   -4.42614  -0.54441 
 H(Fragment=2)        -3.90761   2.68563   1.04531 
 H(Fragment=2)        -2.36867  -4.02766   1.17639 
 H(Fragment=2)        -3.90765  -2.6856   -1.04529 
 O(Fragment=2)        -0.18245  -0.20626   2.30661 
 H(Fragment=2)         0.39297  -0.90393   2.67837 
 H(Fragment=2)         0.0655    0.60953   2.78509 
 
 Stoichiometry    C19H25CoN4O2(1+,2)
 Framework group  C1[X(C19H25CoN4O2)]
 Deg. of freedom   147
 Full point group                 C1      NOp   1
 Largest Abelian subgroup         C1      NOp   1
 Largest concise Abelian subgroup C1      NOp   1
                         Standard orientation:                         
 ---------------------------------------------------------------------
 Center     Atomic      Atomic             Coordinates (Angstroms)
 Number     Number       Type             X           Y           Z
 ---------------------------------------------------------------------
      1          8           0       -0.182428   -0.206267    2.306619
      2          1           0        0.065529    0.609522    2.785100
      3          1           0        0.392992   -0.903937    2.678368
      4         27           0       -0.030963    0.000000    0.000001
      5          7           0       -1.326193    1.415207    0.035824
      6          6           0       -1.039804    2.773733   -0.034673
      7          6           0       -2.311345    3.593027   -0.168131
      8          6           0       -3.426993    2.556574    0.064304
      9          6           0       -2.679085    1.238635    0.027661
     10          6           0        0.224800    3.323970   -0.015984
     11          6           0        1.405956    2.546253    0.096571
     12          7           0        1.366297    1.223720    0.145445
     13          6           0        2.730415    0.666533    0.372121
     14          6           0        3.671073    1.802139   -0.072943
     15          6           0        2.827633    3.070937    0.211231
     16          6           0        2.730417   -0.666518   -0.372125
     17          7           0        1.366303   -1.223714   -0.145445
     18          6           0        1.405969   -2.546247   -0.096574
     19          6           0        2.827648   -3.070922   -0.211240
     20          6           0        3.671081   -1.802120    0.072935
     21          6           0       -3.314357   -0.000008   -0.000004
     22          6           0       -2.679079   -1.238648   -0.027666
     23          7           0       -1.326186   -1.415212   -0.035822
     24          6           0       -1.039789   -2.773737    0.034680
     25          6           0       -2.311327   -3.593035    0.168149
     26          6           0       -3.426977   -2.556592   -0.064317
     27          6           0        0.224817   -3.323969    0.015986
     28          1           0        2.843799    0.465783    1.452107
     29          1           0        2.843797   -0.465767   -1.452112
     30          1           0       -4.402474   -0.000011   -0.000008
     31          1           0        0.317580   -4.405354    0.083599
     32          1           0        0.317558    4.405356   -0.083595
     33          1           0        3.870695   -1.718407    1.150872
     34          1           0        4.630925   -1.794980   -0.454413
     35          1           0       -4.221191    2.593577   -0.691038
     36          1           0        3.027943   -3.895312    0.484156
     37          1           0       -2.368653   -4.027643    1.176420
     38          1           0        3.005460   -3.455699   -1.228105
     39          1           0       -4.221193   -2.593597    0.691005
     40          1           0        3.870685    1.718424   -1.150880
     41          1           0        4.630918    1.795004    0.454403
     42          1           0        3.005446    3.455719    1.228094
     43          1           0        3.027922    3.895326   -0.484167
     44          1           0       -2.332576   -4.426172   -0.544365
     45          1           0       -2.332601    4.426144    0.544407
     46          1           0       -3.907605   -2.685629   -1.045314
     47          1           0       -2.368667    4.027663   -1.176388
     48          1           0       -3.907648    2.685601    1.045288
     49          8           0       -0.182445    0.206261   -2.306609
     50          1           0        0.392972    0.903928   -2.678370
     51          1           0        0.065503   -0.609532   -2.785088
 ---------------------------------------------------------------------
 Rotational constants (GHZ):      0.2583042      0.2471374      0.1422149
 Counterpoise: doing full dimer calculation.
 Standard basis: 6-31G(d) (6D, 7F)
 There are   464 symmetry adapted cartesian basis functions of A   symmetry.
 There are   461 symmetry adapted basis functions of A   symmetry.
   461 basis functions,   904 primitive gaussians,   464 cartesian basis functions
   105 alpha electrons      104 beta electrons
       nuclear repulsion energy      3209.2859904153 Hartrees.
 NAtoms=   51 NActive=   51 NUniq=   51 SFac= 1.00D+00 NAtFMM=   60 NAOKFM=F Big=F
 Integral buffers will be    131072 words long.
 Raffenetti 2 integral format.
 Two-electron integral symmetry is turned on.
 One-electron integrals computed using PRISM.
 NBasis=   461 RedAO= T EigKep=  7.32D-04  NBF=   461
 NBsUse=   461 1.00D-06 EigRej= -1.00D+00 NBFU=   461
 ExpMin= 4.30D-02 ExpMax= 6.61D+04 ExpMxC= 9.93D+03 IAcc=3 IRadAn=         5 AccDes= 0.00D+00
 Harris functional with IExCor= 1009 and IRadAn=       5 diagonalized for initial guess.
 HarFok:  IExCor= 1009 AccDes= 0.00D+00 IRadAn=         5 IDoV= 1 UseB2=F ITyADJ=14
 ICtDFT=  3500011 ScaDFX=  1.000000  1.000000  1.000000  1.000000
 FoFCou: FMM=F IPFlag=           0 FMFlag=      100000 FMFlg1=           0
         NFxFlg=           0 DoJE=T BraDBF=F KetDBF=T FulRan=T
         wScrn=  0.000000 ICntrl=     500 IOpCl=  0 I1Cent=   200000004 NGrid=           0
         NMat0=    1 NMatS0=      1 NMatT0=    0 NMatD0=    1 NMtDS0=    0 NMtDT0=    0
 Petite list used in FoFCou.
 Initial guess <Sx>= 0.0000 <Sy>= 0.0000 <Sz>= 0.5000 <S**2>= 0.7500 S= 0.5000
 Requested convergence on RMS density matrix=1.00D-08 within 128 cycles.
 Requested convergence on MAX density matrix=1.00D-06.
 Requested convergence on             energy=1.00D-06.
 No special actions if energy rises.
 EnCoef did   100 forward-backward iterations
 EnCoef did     2 forward-backward iterations
 EnCoef did     5 forward-backward iterations
 EnCoef did     2 forward-backward iterations
 Restarting incremental Fock formation.
 SCF Done:  E(UTPSS-TPSS) =  -2491.34445600     A.U. after   21 cycles
            NFock= 21  Conv=0.70D-08     -V/T= 2.0048
 <Sx>= 0.0000 <Sy>= 0.0000 <Sz>= 0.5000 <S**2>= 0.7642 S= 0.5071
 <L.S>= 0.000000000000E+00
 Annihilation of the first spin contaminant:
 S**2 before annihilation     0.7642,   after     0.7502

 **********************************************************************

            Population analysis using the SCF density.

 **********************************************************************

 Orbital symmetries:
 Alpha Orbitals:
       Occupied  (A) (A) (A) (A) (A) (A) (A) (A) (A) (A) (A) (A)
                 (A) (A) (A) (A) (A) (A) (A) (A) (A) (A) (A) (A)
                 (A) (A) (A) (A) (A) (A) (A) (A) (A) (A) (A) (A)
                 (A) (A) (A) (A) (A) (A) (A) (A) (A) (A) (A) (A)
                 (A) (A) (A) (A) (A) (A) (A) (A) (A) (A) (A) (A)
                 (A) (A) (A) (A) (A) (A) (A) (A) (A) (A) (A) (A)
                 (A) (A) (A) (A) (A) (A) (A) (A) (A) (A) (A) (A)
                 (A) (A) (A) (A) (A) (A) (A) (A) (A) (A) (A) (A)
                 (A) (A) (A) (A) (A) (A) (A) (A) (A)
       Virtual   (A) (A) (A) (A) (A) (A) (A) (A) (A) (A) (A) (A)
                 (A) (A) (A) (A) (A) (A) (A) (A) (A) (A) (A) (A)
                 (A) (A) (A) (A) (A) (A) (A) (A) (A) (A) (A) (A)
                 (A) (A) (A) (A) (A) (A) (A) (A) (A) (A) (A) (A)
                 (A) (A) (A) (A) (A) (A) (A) (A) (A) (A) (A) (A)
                 (A) (A) (A) (A) (A) (A) (A) (A) (A) (A) (A) (A)
                 (A) (A) (A) (A) (A) (A) (A) (A) (A) (A) (A) (A)
                 (A) (A) (A) (A) (A) (A) (A) (A) (A) (A) (A) (A)
                 (A) (A) (A) (A) (A) (A) (A) (A) (A) (A) (A) (A)
                 (A) (A) (A) (A) (A) (A) (A) (A) (A) (A) (A) (A)
                 (A) (A) (A) (A) (A) (A) (A) (A) (A) (A) (A) (A)
                 (A) (A) (A) (A) (A) (A) (A) (A) (A) (A) (A) (A)
                 (A) (A) (A) (A) (A) (A) (A) (A) (A) (A) (A) (A)
                 (A) (A) (A) (A) (A) (A) (A) (A) (A) (A) (A) (A)
                 (A) (A) (A) (A) (A) (A) (A) (A) (A) (A) (A) (A)
                 (A) (A) (A) (A) (A) (A) (A) (A) (A) (A) (A) (A)
                 (A) (A) (A) (A) (A) (A) (A) (A) (A) (A) (A) (A)
                 (A) (A) (A) (A) (A) (A) (A) (A) (A) (A) (A) (A)
                 (A) (A) (A) (A) (A) (A) (A) (A) (A) (A) (A) (A)
                 (A) (A) (A) (A) (A) (A) (A) (A) (A) (A) (A) (A)
                 (A) (A) (A) (A) (A) (A) (A) (A) (A) (A) (A) (A)
                 (A) (A) (A) (A) (A) (A) (A) (A) (A) (A) (A) (A)
                 (A) (A) (A) (A) (A) (A) (A) (A) (A) (A) (A) (A)
                 (A) (A) (A) (A) (A) (A) (A) (A) (A) (A) (A) (A)
                 (A) (A) (A) (A) (A) (A) (A) (A) (A) (A) (A) (A)
                 (A) (A) (A) (A) (A) (A) (A) (A) (A) (A) (A) (A)
                 (A) (A) (A) (A) (A) (A) (A) (A) (A) (A) (A) (A)
                 (A) (A) (A) (A) (A) (A) (A) (A) (A) (A) (A) (A)
                 (A) (A) (A) (A) (A) (A) (A) (A) (A) (A) (A) (A)
                 (A) (A) (A) (A) (A) (A) (A) (A)
 Beta  Orbitals:
       Occupied  (A) (A) (A) (A) (A) (A) (A) (A) (A) (A) (A) (A)
                 (A) (A) (A) (A) (A) (A) (A) (A) (A) (A) (A) (A)
                 (A) (A) (A) (A) (A) (A) (A) (A) (A) (A) (A) (A)
                 (A) (A) (A) (A) (A) (A) (A) (A) (A) (A) (A) (A)
                 (A) (A) (A) (A) (A) (A) (A) (A) (A) (A) (A) (A)
                 (A) (A) (A) (A) (A) (A) (A) (A) (A) (A) (A) (A)
                 (A) (A) (A) (A) (A) (A) (A) (A) (A) (A) (A) (A)
                 (A) (A) (A) (A) (A) (A) (A) (A) (A) (A) (A) (A)
                 (A) (A) (A) (A) (A) (A) (A) (A)
       Virtual   (A) (A) (A) (A) (A) (A) (A) (A) (A) (A) (A) (A)
                 (A) (A) (A) (A) (A) (A) (A) (A) (A) (A) (A) (A)
                 (A) (A) (A) (A) (A) (A) (A) (A) (A) (A) (A) (A)
                 (A) (A) (A) (A) (A) (A) (A) (A) (A) (A) (A) (A)
                 (A) (A) (A) (A) (A) (A) (A) (A) (A) (A) (A) (A)
                 (A) (A) (A) (A) (A) (A) (A) (A) (A) (A) (A) (A)
                 (A) (A) (A) (A) (A) (A) (A) (A) (A) (A) (A) (A)
                 (A) (A) (A) (A) (A) (A) (A) (A) (A) (A) (A) (A)
                 (A) (A) (A) (A) (A) (A) (A) (A) (A) (A) (A) (A)
                 (A) (A) (A) (A) (A) (A) (A) (A) (A) (A) (A) (A)
                 (A) (A) (A) (A) (A) (A) (A) (A) (A) (A) (A) (A)
                 (A) (A) (A) (A) (A) (A) (A) (A) (A) (A) (A) (A)
                 (A) (A) (A) (A) (A) (A) (A) (A) (A) (A) (A) (A)
                 (A) (A) (A) (A) (A) (A) (A) (A) (A) (A) (A) (A)
                 (A) (A) (A) (A) (A) (A) (A) (A) (A) (A) (A) (A)
                 (A) (A) (A) (A) (A) (A) (A) (A) (A) (A) (A) (A)
                 (A) (A) (A) (A) (A) (A) (A) (A) (A) (A) (A) (A)
                 (A) (A) (A) (A) (A) (A) (A) (A) (A) (A) (A) (A)
                 (A) (A) (A) (A) (A) (A) (A) (A) (A) (A) (A) (A)
                 (A) (A) (A) (A) (A) (A) (A) (A) (A) (A) (A) (A)
                 (A) (A) (A) (A) (A) (A) (A) (A) (A) (A) (A) (A)
                 (A) (A) (A) (A) (A) (A) (A) (A) (A) (A) (A) (A)
                 (A) (A) (A) (A) (A) (A) (A) (A) (A) (A) (A) (A)
                 (A) (A) (A) (A) (A) (A) (A) (A) (A) (A) (A) (A)
                 (A) (A) (A) (A) (A) (A) (A) (A) (A) (A) (A) (A)
                 (A) (A) (A) (A) (A) (A) (A) (A) (A) (A) (A) (A)
                 (A) (A) (A) (A) (A) (A) (A) (A) (A) (A) (A) (A)
                 (A) (A) (A) (A) (A) (A) (A) (A) (A) (A) (A) (A)
                 (A) (A) (A) (A) (A) (A) (A) (A) (A) (A) (A) (A)
                 (A) (A) (A) (A) (A) (A) (A) (A) (A)
 The electronic state is 2-A.
 Alpha  occ. eigenvalues -- -276.77151 -32.59281 -28.25402 -28.25340 -28.24912
 Alpha  occ. eigenvalues --  -19.04524 -19.04524 -14.24587 -14.24586 -14.24027
 Alpha  occ. eigenvalues --  -14.24027 -10.14841 -10.14841 -10.14723 -10.14723
 Alpha  occ. eigenvalues --  -10.14511 -10.14499 -10.14417 -10.14416 -10.11507
 Alpha  occ. eigenvalues --  -10.11507 -10.11229 -10.11229 -10.10895 -10.10895
 Alpha  occ. eigenvalues --  -10.10786 -10.10786 -10.09808 -10.09808 -10.09367
 Alpha  occ. eigenvalues --   -3.70856  -2.41030  -2.40860  -2.40822  -1.07120
 Alpha  occ. eigenvalues --   -1.07076  -1.00433  -0.99118  -0.98868  -0.97260
 Alpha  occ. eigenvalues --   -0.85720  -0.82568  -0.82471  -0.81987  -0.81485
 Alpha  occ. eigenvalues --   -0.81461  -0.80770  -0.76243  -0.75547  -0.70105
 Alpha  occ. eigenvalues --   -0.68909  -0.67246  -0.64614  -0.64424  -0.63659
 Alpha  occ. eigenvalues --   -0.61199  -0.60859  -0.60795  -0.60742  -0.59074
 Alpha  occ. eigenvalues --   -0.57003  -0.56205  -0.55947  -0.55086  -0.54300
 Alpha  occ. eigenvalues --   -0.53501  -0.52875  -0.52314  -0.51593  -0.49575
 Alpha  occ. eigenvalues --   -0.48783  -0.48386  -0.48074  -0.47373  -0.46459
 Alpha  occ. eigenvalues --   -0.46174  -0.45682  -0.45129  -0.44499  -0.44471
 Alpha  occ. eigenvalues --   -0.44311  -0.44258  -0.43966  -0.43609  -0.43378
 Alpha  occ. eigenvalues --   -0.42974  -0.42239  -0.41923  -0.41456  -0.41109
 Alpha  occ. eigenvalues --   -0.40413  -0.40175  -0.40080  -0.39652  -0.38545
 Alpha  occ. eigenvalues --   -0.37733  -0.37648  -0.36999  -0.33741  -0.31803
 Alpha  occ. eigenvalues --   -0.29888  -0.28277  -0.27583  -0.26752  -0.26511
 Alpha virt. eigenvalues --   -0.19027  -0.16441  -0.15698  -0.13349  -0.09625
 Alpha virt. eigenvalues --   -0.09168  -0.06329  -0.05313  -0.05255  -0.04966
 Alpha virt. eigenvalues --   -0.03637  -0.02533  -0.01477  -0.01351  -0.00596
 Alpha virt. eigenvalues --    0.00272   0.00739   0.01191   0.01718   0.01948
 Alpha virt. eigenvalues --    0.02657   0.03035   0.03791   0.04267   0.04641
 Alpha virt. eigenvalues --    0.04835   0.04857   0.05559   0.06093   0.06125
 Alpha virt. eigenvalues --    0.06377   0.06708   0.07178   0.07747   0.07820
 Alpha virt. eigenvalues --    0.08357   0.09319   0.09498   0.09807   0.10153
 Alpha virt. eigenvalues --    0.11693   0.11696   0.11961   0.12164   0.12500
 Alpha virt. eigenvalues --    0.13174   0.13823   0.15022   0.16420   0.16673
 Alpha virt. eigenvalues --    0.16863   0.18284   0.19299   0.20269   0.22080
 Alpha virt. eigenvalues --    0.22977   0.24330   0.25593   0.26242   0.28697
 Alpha virt. eigenvalues --    0.30230   0.30577   0.31215   0.33635   0.33835
 Alpha virt. eigenvalues --    0.37913   0.38334   0.38612   0.39878   0.39889
 Alpha virt. eigenvalues --    0.40358   0.40740   0.41745   0.42796   0.43504
 Alpha virt. eigenvalues --    0.43819   0.44370   0.44440   0.45375   0.45394
 Alpha virt. eigenvalues --    0.45647   0.45865   0.46948   0.47865   0.48372
 Alpha virt. eigenvalues --    0.48576   0.49293   0.50191   0.50463   0.51250
 Alpha virt. eigenvalues --    0.51665   0.51900   0.52904   0.53591   0.53992
 Alpha virt. eigenvalues --    0.55379   0.55890   0.56971   0.59197   0.59818
 Alpha virt. eigenvalues --    0.60021   0.61204   0.61702   0.62514   0.63090
 Alpha virt. eigenvalues --    0.63617   0.65636   0.65763   0.66893   0.67510
 Alpha virt. eigenvalues --    0.68104   0.68855   0.69786   0.69935   0.71256
 Alpha virt. eigenvalues --    0.71472   0.72541   0.72845   0.73137   0.73258
 Alpha virt. eigenvalues --    0.73639   0.73925   0.74218   0.74264   0.74688
 Alpha virt. eigenvalues --    0.75911   0.76090   0.76505   0.77354   0.77895
 Alpha virt. eigenvalues --    0.78066   0.78473   0.79345   0.79422   0.80502
 Alpha virt. eigenvalues --    0.80683   0.80748   0.81998   0.82986   0.83203
 Alpha virt. eigenvalues --    0.83532   0.83667   0.83881   0.84276   0.84983
 Alpha virt. eigenvalues --    0.86088   0.86537   0.88422   0.89325   0.89476
 Alpha virt. eigenvalues --    0.92024   0.95005   0.95849   0.96038   0.96292
 Alpha virt. eigenvalues --    0.96788   0.97586   1.00313   1.01330   1.02146
 Alpha virt. eigenvalues --    1.02603   1.03824   1.04297   1.05860   1.07171
 Alpha virt. eigenvalues --    1.08488   1.09127   1.09683   1.12409   1.14427
 Alpha virt. eigenvalues --    1.14480   1.14748   1.14821   1.16702   1.17133
 Alpha virt. eigenvalues --    1.17915   1.22579   1.24385   1.24710   1.25855
 Alpha virt. eigenvalues --    1.26357   1.26437   1.27826   1.28337   1.30625
 Alpha virt. eigenvalues --    1.30941   1.31095   1.34073   1.35603   1.38157
 Alpha virt. eigenvalues --    1.39720   1.41124   1.42415   1.43682   1.45104
 Alpha virt. eigenvalues --    1.46804   1.48806   1.49946   1.50481   1.53129
 Alpha virt. eigenvalues --    1.53813   1.54658   1.55027   1.57145   1.57288
 Alpha virt. eigenvalues --    1.58256   1.59973   1.60724   1.60888   1.61691
 Alpha virt. eigenvalues --    1.63078   1.64147   1.64983   1.66097   1.66356
 Alpha virt. eigenvalues --    1.66548   1.67589   1.67943   1.68057   1.68883
 Alpha virt. eigenvalues --    1.68922   1.70326   1.70606   1.71216   1.72679
 Alpha virt. eigenvalues --    1.73724   1.76799   1.76863   1.77900   1.79088
 Alpha virt. eigenvalues --    1.79666   1.80329   1.80488   1.81953   1.82625
 Alpha virt. eigenvalues --    1.84189   1.84432   1.85518   1.85602   1.87524
 Alpha virt. eigenvalues --    1.88319   1.88981   1.89616   1.90383   1.93156
 Alpha virt. eigenvalues --    1.93855   1.94713   1.95766   1.96159   1.96586
 Alpha virt. eigenvalues --    1.99870   2.01851   2.02140   2.02677   2.04416
 Alpha virt. eigenvalues --    2.05485   2.06241   2.07145   2.07942   2.09088
 Alpha virt. eigenvalues --    2.09195   2.10013   2.10812   2.10902   2.11676
 Alpha virt. eigenvalues --    2.13115   2.13530   2.13973   2.14333   2.15380
 Alpha virt. eigenvalues --    2.15948   2.16928   2.17471   2.18947   2.19051
 Alpha virt. eigenvalues --    2.19993   2.22160   2.22751   2.26454   2.26612
 Alpha virt. eigenvalues --    2.30204   2.30430   2.31912   2.34149   2.34642
 Alpha virt. eigenvalues --    2.35187   2.36653   2.37363   2.37763   2.38438
 Alpha virt. eigenvalues --    2.39298   2.39317   2.41033   2.41240   2.44172
 Alpha virt. eigenvalues --    2.44363   2.45974   2.47214   2.48771   2.49063
 Alpha virt. eigenvalues --    2.50371   2.52231   2.52548   2.53609   2.55092
 Alpha virt. eigenvalues --    2.55889   2.59543   2.60068   2.60802   2.61770
 Alpha virt. eigenvalues --    2.62994   2.65125   2.67395   2.68667   2.70820
 Alpha virt. eigenvalues --    2.71572   2.73210   2.73959   2.76341   2.81010
 Alpha virt. eigenvalues --    2.84779   2.90306   2.94822   2.94863   3.01650
 Alpha virt. eigenvalues --    3.08244   3.08859   3.21270   3.24956   3.29587
 Alpha virt. eigenvalues --    3.62752   3.70357   3.96062   4.01514   4.02489
 Alpha virt. eigenvalues --    4.05092   4.05455   4.06945   4.07150   4.07252
 Alpha virt. eigenvalues --    4.11745   4.15884   4.19320   4.20634   4.21230
 Alpha virt. eigenvalues --    4.23499   4.26781   4.34537   4.43074   4.44842
 Alpha virt. eigenvalues --    4.49919   4.53596   4.53914   4.60264   4.61439
 Alpha virt. eigenvalues --   26.17113
  Beta  occ. eigenvalues -- -276.77127 -32.57489 -28.24351 -28.24344 -28.22614
  Beta  occ. eigenvalues --  -19.04374 -19.04374 -14.24596 -14.24596 -14.24041
  Beta  occ. eigenvalues --  -14.24041 -10.14871 -10.14870 -10.14749 -10.14749
  Beta  occ. eigenvalues --  -10.14514 -10.14502 -10.14461 -10.14460 -10.11507
  Beta  occ. eigenvalues --  -10.11507 -10.11229 -10.11229 -10.10895 -10.10895
  Beta  occ. eigenvalues --  -10.10785 -10.10785 -10.09795 -10.09795 -10.09355
  Beta  occ. eigenvalues --   -3.66358  -2.37630  -2.37551  -2.34039  -1.06902
  Beta  occ. eigenvalues --   -1.06861  -1.00449  -0.99145  -0.98896  -0.97281
  Beta  occ. eigenvalues --   -0.85746  -0.82587  -0.82490  -0.81996  -0.81494
  Beta  occ. eigenvalues --   -0.81468  -0.80776  -0.76241  -0.75587  -0.70116
  Beta  occ. eigenvalues --   -0.68918  -0.67250  -0.64628  -0.64446  -0.63679
  Beta  occ. eigenvalues --   -0.61211  -0.60755  -0.60702  -0.60693  -0.59050
  Beta  occ. eigenvalues --   -0.57010  -0.56239  -0.55969  -0.54999  -0.54318
  Beta  occ. eigenvalues --   -0.53526  -0.52904  -0.52319  -0.51597  -0.49579
  Beta  occ. eigenvalues --   -0.48490  -0.48127  -0.47886  -0.47368  -0.46449
  Beta  occ. eigenvalues --   -0.46184  -0.45678  -0.45104  -0.44521  -0.44472
  Beta  occ. eigenvalues --   -0.44335  -0.44020  -0.43730  -0.43348  -0.43337
  Beta  occ. eigenvalues --   -0.42856  -0.42163  -0.41936  -0.41435  -0.41131
  Beta  occ. eigenvalues --   -0.40387  -0.39951  -0.39343  -0.39300  -0.38553
  Beta  occ. eigenvalues --   -0.37608  -0.37587  -0.37025  -0.33688  -0.31326
  Beta  occ. eigenvalues --   -0.28218  -0.27476  -0.26293  -0.25472
  Beta virt. eigenvalues --   -0.18992  -0.17725  -0.15878  -0.13466  -0.13440
  Beta virt. eigenvalues --   -0.09568  -0.08805  -0.06357  -0.05333  -0.05297
  Beta virt. eigenvalues --   -0.04978  -0.03639  -0.02512  -0.01449  -0.01342
  Beta virt. eigenvalues --   -0.00587   0.00298   0.00816   0.01196   0.01731
  Beta virt. eigenvalues --    0.01947   0.02656   0.03021   0.03790   0.04257
  Beta virt. eigenvalues --    0.04633   0.04835   0.04851   0.05539   0.06092
  Beta virt. eigenvalues --    0.06114   0.06388   0.06689   0.07181   0.07782
  Beta virt. eigenvalues --    0.07834   0.08353   0.09328   0.09520   0.09778
  Beta virt. eigenvalues --    0.10136   0.11703   0.11714   0.11968   0.12296
  Beta virt. eigenvalues --    0.12505   0.13189   0.13887   0.15100   0.16405
  Beta virt. eigenvalues --    0.16822   0.16899   0.18261   0.19725   0.20261
  Beta virt. eigenvalues --    0.22254   0.23807   0.24440   0.25869   0.26692
  Beta virt. eigenvalues --    0.28770   0.30258   0.30736   0.31228   0.33624
  Beta virt. eigenvalues --    0.33823   0.37902   0.38389   0.38636   0.39850
  Beta virt. eigenvalues --    0.39891   0.40402   0.40739   0.41721   0.42807
  Beta virt. eigenvalues --    0.43507   0.43791   0.44396   0.44454   0.45372
  Beta virt. eigenvalues --    0.45384   0.45690   0.45876   0.46947   0.47920
  Beta virt. eigenvalues --    0.48379   0.48591   0.49292   0.50209   0.50477
  Beta virt. eigenvalues --    0.51246   0.51670   0.51913   0.52921   0.53622
  Beta virt. eigenvalues --    0.54011   0.55375   0.55874   0.56945   0.59126
  Beta virt. eigenvalues --    0.59805   0.59924   0.61273   0.61664   0.62531
  Beta virt. eigenvalues --    0.63183   0.63662   0.65640   0.65791   0.66901
  Beta virt. eigenvalues --    0.67488   0.68136   0.68889   0.69811   0.69979
  Beta virt. eigenvalues --    0.71262   0.71489   0.72543   0.72829   0.73143
  Beta virt. eigenvalues --    0.73266   0.73646   0.73924   0.74250   0.74315
  Beta virt. eigenvalues --    0.74710   0.75934   0.76198   0.76600   0.77419
  Beta virt. eigenvalues --    0.77970   0.78101   0.78465   0.79429   0.79440
  Beta virt. eigenvalues --    0.80490   0.80759   0.80805   0.82007   0.83019
  Beta virt. eigenvalues --    0.83197   0.83526   0.83662   0.83915   0.84347
  Beta virt. eigenvalues --    0.84968   0.86044   0.86534   0.88667   0.89419
  Beta virt. eigenvalues --    0.89575   0.92293   0.95025   0.95965   0.96041
  Beta virt. eigenvalues --    0.96301   0.96894   0.97936   1.00382   1.01378
  Beta virt. eigenvalues --    1.02186   1.02671   1.03883   1.04319   1.05940
  Beta virt. eigenvalues --    1.07216   1.08492   1.09181   1.09780   1.12469
  Beta virt. eigenvalues --    1.14490   1.14539   1.14858   1.14992   1.16754
  Beta virt. eigenvalues --    1.17173   1.17959   1.22633   1.24481   1.24860
  Beta virt. eigenvalues --    1.25916   1.26413   1.26452   1.28103   1.28352
  Beta virt. eigenvalues --    1.30772   1.31039   1.31242   1.34277   1.35620
  Beta virt. eigenvalues --    1.38167   1.39808   1.41196   1.42538   1.43837
  Beta virt. eigenvalues --    1.46164   1.47239   1.49096   1.49988   1.50522
  Beta virt. eigenvalues --    1.53211   1.54214   1.54856   1.55122   1.57255
  Beta virt. eigenvalues --    1.57506   1.58341   1.59971   1.60743   1.60862
  Beta virt. eigenvalues --    1.61745   1.63230   1.64147   1.65071   1.66083
  Beta virt. eigenvalues --    1.66383   1.66601   1.67620   1.67918   1.68061
  Beta virt. eigenvalues --    1.68960   1.69118   1.70377   1.70791   1.71384
  Beta virt. eigenvalues --    1.72778   1.73857   1.76927   1.76936   1.78268
  Beta virt. eigenvalues --    1.79452   1.79949   1.80354   1.80778   1.81969
  Beta virt. eigenvalues --    1.82637   1.84253   1.84468   1.85559   1.85659
  Beta virt. eigenvalues --    1.87525   1.88317   1.89056   1.89713   1.90561
  Beta virt. eigenvalues --    1.93269   1.94066   1.94762   1.95769   1.96615
  Beta virt. eigenvalues --    1.96712   2.00215   2.01991   2.02422   2.03120
  Beta virt. eigenvalues --    2.04509   2.05582   2.06502   2.07123   2.08292
  Beta virt. eigenvalues --    2.09361   2.09536   2.10242   2.10999   2.11138
  Beta virt. eigenvalues --    2.11891   2.13169   2.13570   2.14176   2.14509
  Beta virt. eigenvalues --    2.15476   2.16137   2.17384   2.17509   2.19121
  Beta virt. eigenvalues --    2.19421   2.20493   2.22143   2.23001   2.26624
  Beta virt. eigenvalues --    2.26697   2.30470   2.30503   2.32105   2.34284
  Beta virt. eigenvalues --    2.34666   2.35846   2.36916   2.37468   2.37789
  Beta virt. eigenvalues --    2.39090   2.39430   2.39472   2.41126   2.41562
  Beta virt. eigenvalues --    2.44559   2.44686   2.46447   2.47462   2.48748
  Beta virt. eigenvalues --    2.49565   2.50451   2.52597   2.53602   2.54104
  Beta virt. eigenvalues --    2.55902   2.57324   2.59972   2.60157   2.60937
  Beta virt. eigenvalues --    2.61987   2.63115   2.65314   2.67594   2.68724
  Beta virt. eigenvalues --    2.70989   2.71671   2.73289   2.74083   2.76389
  Beta virt. eigenvalues --    2.81339   2.84858   2.91786   2.94870   2.94913
  Beta virt. eigenvalues --    3.02354   3.08669   3.09639   3.21583   3.25263
  Beta virt. eigenvalues --    3.30093   3.63163   3.70658   3.96123   4.01509
  Beta virt. eigenvalues --    4.02452   4.05076   4.05458   4.06903   4.07121
  Beta virt. eigenvalues --    4.07232   4.11721   4.15873   4.19319   4.20626
  Beta virt. eigenvalues --    4.21210   4.23482   4.26809   4.34478   4.43072
  Beta virt. eigenvalues --    4.44805   4.49923   4.53562   4.53874   4.60237
  Beta virt. eigenvalues --    4.61445  26.20704
          Condensed to atoms (all electrons):
          Atomic-Atomic Spin Densities.
 Mulliken charges and spin densities:
               1          2
     1  O   -0.715463   0.030709
     2  H    0.430721   0.004129
     3  H    0.428761   0.004056
     4  Co   1.001118   1.076376
     5  N   -0.667797  -0.010566
     6  C    0.347689  -0.016048
     7  C   -0.378181   0.000645
     8  C   -0.379870   0.001493
     9  C    0.381003  -0.027844
    10  C   -0.314176   0.009398
    11  C    0.349371  -0.018701
    12  N   -0.609097  -0.013674
    13  C    0.014585  -0.002246
    14  C   -0.328175  -0.000086
    15  C   -0.375404   0.000396
    16  C    0.014586  -0.002246
    17  N   -0.609097  -0.013674
    18  C    0.349370  -0.018701
    19  C   -0.375404   0.000396
    20  C   -0.328175  -0.000086
    21  C   -0.306287   0.009803
    22  C    0.381001  -0.027844
    23  N   -0.667800  -0.010566
    24  C    0.347688  -0.016048
    25  C   -0.378181   0.000645
    26  C   -0.379869   0.001493
    27  C   -0.314176   0.009398
    28  H    0.167429   0.000680
    29  H    0.167430   0.000680
    30  H    0.168178  -0.000223
    31  H    0.169413  -0.000309
    32  H    0.169413  -0.000309
    33  H    0.172317   0.000031
    34  H    0.184921  -0.000056
    35  H    0.198278  -0.000820
    36  H    0.194448  -0.000459
    37  H    0.203334  -0.000806
    38  H    0.194397  -0.001026
    39  H    0.198278  -0.000820
    40  H    0.172317   0.000031
    41  H    0.184921  -0.000056
    42  H    0.194396  -0.001026
    43  H    0.194448  -0.000459
    44  H    0.197144  -0.000385
    45  H    0.197144  -0.000385
    46  H    0.202850  -0.001487
    47  H    0.203333  -0.000806
    48  H    0.202850  -0.001487
    49  O   -0.715463   0.030709
    50  H    0.428761   0.004056
    51  H    0.430722   0.004129
 Sum of Mulliken charges =   1.00000   1.00000
 Mulliken charges and spin densities with hydrogens summed into heavy atoms:
               1          2
     1  O    0.144018   0.038893
     4  Co   1.001118   1.076376
     5  N   -0.667797  -0.010566
     6  C    0.347689  -0.016048
     7  C    0.022297  -0.000546
     8  C    0.021259  -0.000814
     9  C    0.381003  -0.027844
    10  C   -0.144763   0.009089
    11  C    0.349371  -0.018701
    12  N   -0.609097  -0.013674
    13  C    0.182015  -0.001566
    14  C    0.029064  -0.000111
    15  C    0.013440  -0.001090
    16  C    0.182015  -0.001566
    17  N   -0.609097  -0.013674
    18  C    0.349370  -0.018701
    19  C    0.013440  -0.001090
    20  C    0.029064  -0.000111
    21  C   -0.138109   0.009579
    22  C    0.381001  -0.027844
    23  N   -0.667800  -0.010566
    24  C    0.347688  -0.016048
    25  C    0.022296  -0.000546
    26  C    0.021259  -0.000814
    27  C   -0.144763   0.009089
    49  O    0.144019   0.038894
         Mulliken charges and spin densities condensed to fragments:
      1      0.144018      0.038893
      2      0.855982      0.961107
 Electronic spatial extent (au):  <R**2>=           7879.7998
 Charge=              1.0000 electrons
 Dipole moment (field-independent basis, Debye):
    X=              1.8573    Y=              0.0000    Z=              0.0000  Tot=              1.8573
 Quadrupole moment (field-independent basis, Debye-Ang):
   XX=           -112.9776   YY=           -113.0926   ZZ=           -136.2038
   XY=              0.0000   XZ=              0.0001   YZ=              0.3958
 Traceless Quadrupole moment (field-independent basis, Debye-Ang):
   XX=              7.7804   YY=              7.6654   ZZ=            -15.4458
   XY=              0.0000   XZ=              0.0001   YZ=              0.3958
 Octapole moment (field-independent basis, Debye-Ang**2):
  XXX=            -15.2111  YYY=              0.0000  ZZZ=             -0.0001  XYY=            -16.9769
  XXY=              0.0002  XXZ=              0.0000  XZZ=             23.5557  YZZ=              0.0000
  YYZ=              0.0001  XYZ=              0.3116
 Hexadecapole moment (field-independent basis, Debye-Ang**3):
 XXXX=          -4464.9525 YYYY=          -4182.8920 ZZZZ=           -459.7588 XXXY=             -0.0009
 XXXZ=             -0.0001 YYYX=              0.0004 YYYZ=            -19.8728 ZZZX=              0.0013
 ZZZY=              1.0585 XXYY=          -1349.2763 XXZZ=           -928.5984 YYZZ=           -868.7160
 XXYZ=              7.9402 YYXZ=              0.0000 ZZXY=             -0.0001
 N-N= 3.209285990415D+03 E-N=-1.226851035410D+04  KE= 2.479540937716D+03
                          Isotropic Fermi Contact Couplings
        Atom                 a.u.       MegaHertz       Gauss      10(-4) cm-1
     1  O(17)              0.09448     -57.27127     -20.43581     -19.10364
     2  H(1)               0.00023       1.03053       0.36772       0.34375
     3  H(1)               0.00019       0.85076       0.30357       0.28378
     4  Co(59)             0.26946     285.06935     101.71983      95.08890
     5  N(14)             -0.00714      -2.30603      -0.82285      -0.76921
     6  C(13)             -0.00221      -2.48108      -0.88531      -0.82760
     7  C(13)              0.00017       0.18877       0.06736       0.06297
     8  C(13)              0.00045       0.50383       0.17978       0.16806
     9  C(13)             -0.00367      -4.12028      -1.47022      -1.37438
    10  C(13)              0.00205       2.30243       0.82157       0.76801
    11  C(13)             -0.00233      -2.62224      -0.93568      -0.87469
    12  N(14)             -0.00928      -2.99774      -1.06967      -0.99994
    13  C(13)              0.00020       0.22054       0.07869       0.07356
    14  C(13)              0.00000       0.00489       0.00174       0.00163
    15  C(13)              0.00001       0.00607       0.00216       0.00202
    16  C(13)              0.00020       0.22055       0.07870       0.07357
    17  N(14)             -0.00928      -2.99773      -1.06966      -0.99993
    18  C(13)             -0.00233      -2.62222      -0.93567      -0.87468
    19  C(13)              0.00001       0.00607       0.00216       0.00202
    20  C(13)              0.00000       0.00489       0.00174       0.00163
    21  C(13)              0.00242       2.72517       0.97241       0.90902
    22  C(13)             -0.00367      -4.12027      -1.47022      -1.37438
    23  N(14)             -0.00714      -2.30602      -0.82285      -0.76921
    24  C(13)             -0.00221      -2.48107      -0.88531      -0.82760
    25  C(13)              0.00017       0.18876       0.06735       0.06296
    26  C(13)              0.00045       0.50382       0.17977       0.16806
    27  C(13)              0.00205       2.30243       0.82156       0.76801
    28  H(1)               0.00024       1.05669       0.37705       0.35247
    29  H(1)               0.00024       1.05669       0.37705       0.35247
    30  H(1)              -0.00007      -0.29872      -0.10659      -0.09964
    31  H(1)              -0.00010      -0.44987      -0.16052      -0.15006
    32  H(1)              -0.00010      -0.44987      -0.16052      -0.15006
    33  H(1)               0.00001       0.06463       0.02306       0.02156
    34  H(1)              -0.00004      -0.16381      -0.05845      -0.05464
    35  H(1)              -0.00047      -2.08460      -0.74384      -0.69535
    36  H(1)              -0.00025      -1.13057      -0.40342      -0.37712
    37  H(1)              -0.00043      -1.91933      -0.68487      -0.64022
    38  H(1)              -0.00053      -2.37324      -0.84683      -0.79163
    39  H(1)              -0.00047      -2.08449      -0.74380      -0.69531
    40  H(1)               0.00001       0.06462       0.02306       0.02156
    41  H(1)              -0.00004      -0.16381      -0.05845      -0.05464
    42  H(1)              -0.00053      -2.37325      -0.84683      -0.79163
    43  H(1)              -0.00025      -1.13056      -0.40341      -0.37712
    44  H(1)              -0.00024      -1.05601      -0.37681      -0.35225
    45  H(1)              -0.00024      -1.05608      -0.37684      -0.35227
    46  H(1)              -0.00077      -3.46203      -1.23534      -1.15481
    47  H(1)              -0.00043      -1.91929      -0.68485      -0.64021
    48  H(1)              -0.00077      -3.46198      -1.23532      -1.15479
    49  O(17)              0.09448     -57.27231     -20.43618     -19.10399
    50  H(1)               0.00019       0.85087       0.30361       0.28382
    51  H(1)               0.00023       1.03054       0.36772       0.34375
 --------------------------------------------------------
       Center         ----  Spin Dipole Couplings  ----
                      3XX-RR        3YY-RR        3ZZ-RR
 --------------------------------------------------------
     1   Atom       -0.065198     -0.090147      0.155345
     2   Atom       -0.011557     -0.001966      0.013524
     3   Atom       -0.007674     -0.002878      0.010552
     4   Atom       -1.507578     -1.304659      2.812237
     5   Atom       -0.001421      0.002325     -0.000903
     6   Atom        0.004984      0.016163     -0.021147
     7   Atom       -0.000482      0.001935     -0.001454
     8   Atom        0.001867     -0.000338     -0.001529
     9   Atom        0.021837      0.012409     -0.034246
    10   Atom       -0.008699      0.004755      0.003944
    11   Atom        0.008072      0.016464     -0.024536
    12   Atom       -0.007602     -0.000022      0.007625
    13   Atom        0.008745     -0.004488     -0.004257
    14   Atom        0.002732     -0.001125     -0.001608
    15   Atom       -0.000203      0.001447     -0.001244
    16   Atom        0.008745     -0.004488     -0.004257
    17   Atom       -0.007602     -0.000022      0.007625
    18   Atom        0.008072      0.016464     -0.024536
    19   Atom       -0.000203      0.001447     -0.001244
    20   Atom        0.002732     -0.001125     -0.001608
    21   Atom        0.006006     -0.008702      0.002697
    22   Atom        0.021837      0.012410     -0.034246
    23   Atom       -0.001421      0.002325     -0.000904
    24   Atom        0.004984      0.016163     -0.021147
    25   Atom       -0.000482      0.001935     -0.001454
    26   Atom        0.001867     -0.000338     -0.001529
    27   Atom       -0.008699      0.004755      0.003944
    28   Atom        0.006236     -0.004248     -0.001987
    29   Atom        0.006236     -0.004248     -0.001987
    30   Atom        0.003587     -0.002310     -0.001276
    31   Atom       -0.002266      0.003644     -0.001378
    32   Atom       -0.002266      0.003644     -0.001378
    33   Atom        0.002303     -0.000965     -0.001338
    34   Atom        0.001776     -0.000735     -0.001041
    35   Atom        0.001159     -0.000269     -0.000890
    36   Atom        0.000077      0.000949     -0.001026
    37   Atom       -0.000319      0.001365     -0.001046
    38   Atom        0.000178      0.000937     -0.001115
    39   Atom        0.001159     -0.000269     -0.000890
    40   Atom        0.002303     -0.000965     -0.001338
    41   Atom        0.001776     -0.000735     -0.001041
    42   Atom        0.000178      0.000937     -0.001115
    43   Atom        0.000077      0.000949     -0.001026
    44   Atom       -0.000364      0.001276     -0.000911
    45   Atom       -0.000364      0.001276     -0.000911
    46   Atom        0.001194     -0.000181     -0.001013
    47   Atom       -0.000319      0.001365     -0.001046
    48   Atom        0.001194     -0.000181     -0.001013
    49   Atom       -0.065197     -0.090148      0.155345
    50   Atom       -0.007674     -0.002878      0.010552
    51   Atom       -0.011557     -0.001966      0.013524
 --------------------------------------------------------
                        XY            XZ            YZ
 --------------------------------------------------------
     1   Atom        0.012075     -0.080016     -0.035160
     2   Atom        0.002510      0.001288      0.009823
     3   Atom       -0.006245      0.005036     -0.010515
     4   Atom       -0.000002      0.000007     -0.337025
     5   Atom       -0.015543     -0.002012      0.002563
     6   Atom       -0.005058      0.000758     -0.002183
     7   Atom       -0.002179      0.000135     -0.000038
     8   Atom       -0.002095     -0.000067      0.000114
     9   Atom       -0.006147      0.000218      0.001007
    10   Atom        0.001028     -0.000642      0.000765
    11   Atom        0.006385      0.002662     -0.001068
    12   Atom        0.012878     -0.002047      0.001495
    13   Atom        0.005483      0.001303      0.000771
    14   Atom        0.002492     -0.000066     -0.000009
    15   Atom        0.002119      0.000114      0.000090
    16   Atom       -0.005483     -0.001303      0.000771
    17   Atom       -0.012878      0.002046      0.001495
    18   Atom       -0.006385     -0.002662     -0.001067
    19   Atom       -0.002119     -0.000114      0.000090
    20   Atom       -0.002492      0.000066     -0.000009
    21   Atom        0.000000      0.000000     -0.000434
    22   Atom        0.006147     -0.000218      0.001007
    23   Atom        0.015543      0.002012      0.002563
    24   Atom        0.005058     -0.000758     -0.002183
    25   Atom        0.002179     -0.000135     -0.000038
    26   Atom        0.002095      0.000067      0.000114
    27   Atom       -0.001028      0.000642      0.000765
    28   Atom        0.001873      0.004630      0.000851
    29   Atom       -0.001873     -0.004630      0.000851
    30   Atom        0.000000      0.000000     -0.000028
    31   Atom       -0.000466      0.000043     -0.000034
    32   Atom        0.000466     -0.000043     -0.000034
    33   Atom       -0.001891      0.000982     -0.000525
    34   Atom       -0.001238     -0.000244      0.000114
    35   Atom       -0.001329      0.000174     -0.000155
    36   Atom       -0.001553      0.000137     -0.000113
    37   Atom        0.001596     -0.000368     -0.000519
    38   Atom       -0.001780     -0.000498      0.000586
    39   Atom        0.001329     -0.000174     -0.000155
    40   Atom        0.001891     -0.000982     -0.000525
    41   Atom        0.001238      0.000244      0.000114
    42   Atom        0.001780      0.000498      0.000586
    43   Atom        0.001553     -0.000137     -0.000113
    44   Atom        0.001353      0.000158      0.000185
    45   Atom       -0.001353     -0.000158      0.000185
    46   Atom        0.001507      0.000387      0.000269
    47   Atom       -0.001596      0.000368     -0.000519
    48   Atom       -0.001507     -0.000387      0.000269
    49   Atom       -0.012075      0.080019     -0.035159
    50   Atom        0.006245     -0.005036     -0.010515
    51   Atom       -0.002510     -0.001288      0.009823
 --------------------------------------------------------


 ---------------------------------------------------------------------------------
              Anisotropic Spin Dipole Couplings in Principal Axis System
 ---------------------------------------------------------------------------------

       Atom             a.u.   MegaHertz   Gauss  10(-4) cm-1        Axes

              Baa    -0.0952     6.892     2.459     2.299 -0.1849  0.9796  0.0784
     1 O(17)  Bbb    -0.0911     6.590     2.352     2.198  0.9338  0.1502  0.3247
              Bcc     0.1863   -13.482    -4.811    -4.497 -0.3063 -0.1333  0.9426
 
              Baa    -0.0122    -6.534    -2.331    -2.179  0.9534 -0.2946  0.0646
     2 H(1)   Bbb    -0.0062    -3.314    -1.183    -1.106  0.2921  0.8485 -0.4414
              Bcc     0.0185     9.848     3.514     3.285  0.0752  0.4397  0.8950
 
              Baa    -0.0122    -6.518    -2.326    -2.174  0.7457  0.6522  0.1363
     3 H(1)   Bbb    -0.0062    -3.325    -1.186    -1.109  0.6062 -0.5793 -0.5449
              Bcc     0.0184     9.843     3.512     3.283  0.2764 -0.4889  0.8274
 
              Baa    -1.5076  -190.376   -67.931   -63.503  1.0000  0.0000  0.0000
     4 Co(59) Bbb    -1.3321  -168.212   -60.022   -56.110  0.0000  0.9967  0.0811
              Bcc     2.8396   358.588   127.953   119.612  0.0000 -0.0811  0.9967
 
              Baa    -0.0152    -0.586    -0.209    -0.196  0.7472  0.6645 -0.0140
     5 N(14)  Bbb    -0.0015    -0.058    -0.021    -0.019  0.1310 -0.1266  0.9833
              Bcc     0.0167     0.644     0.230     0.215 -0.6516  0.7365  0.1816
 
              Baa    -0.0213    -2.856    -1.019    -0.953 -0.0181  0.0558  0.9983
     6 C(13)  Bbb     0.0030     0.407     0.145     0.136  0.9333  0.3590 -0.0032
              Bcc     0.0182     2.449     0.874     0.817 -0.3586  0.9317 -0.0585
 
              Baa    -0.0018    -0.241    -0.086    -0.080  0.8308  0.4827 -0.2769
     7 C(13)  Bbb    -0.0014    -0.192    -0.068    -0.064  0.2280  0.1587  0.9606
              Bcc     0.0032     0.432     0.154     0.144 -0.5077  0.8613 -0.0218
 
              Baa    -0.0016    -0.220    -0.079    -0.073  0.4354  0.7451 -0.5053
     8 C(13)  Bbb    -0.0015    -0.201    -0.072    -0.067  0.2798  0.4214  0.8626
              Bcc     0.0031     0.421     0.150     0.140  0.8556 -0.5170 -0.0250
 
              Baa    -0.0343    -4.599    -1.641    -1.534 -0.0063 -0.0224  0.9997
     9 C(13)  Bbb     0.0094     1.261     0.450     0.421  0.4426  0.8964  0.0229
              Bcc     0.0249     3.337     1.191     1.113  0.8967 -0.4427 -0.0042
 
              Baa    -0.0088    -1.183    -0.422    -0.395  0.9954 -0.0785  0.0548
    10 C(13)  Bbb     0.0036     0.480     0.171     0.160 -0.0863 -0.4885  0.8683
              Bcc     0.0052     0.703     0.251     0.234  0.0414  0.8690  0.4931
 
              Baa    -0.0248    -3.330    -1.188    -1.111 -0.0882  0.0394  0.9953
    11 C(13)  Bbb     0.0049     0.658     0.235     0.219  0.8750 -0.4744  0.0963
              Bcc     0.0199     2.672     0.953     0.891  0.4760  0.8794  0.0074
 
              Baa    -0.0175    -0.675    -0.241    -0.225  0.7967 -0.5959  0.1004
    12 N(14)  Bbb     0.0079     0.304     0.108     0.101 -0.0705  0.0734  0.9948
              Bcc     0.0096     0.371     0.132     0.124  0.6002  0.7997 -0.0165
 
              Baa    -0.0065    -0.873    -0.311    -0.291 -0.3253  0.9362 -0.1328
    13 C(13)  Bbb    -0.0044    -0.586    -0.209    -0.195 -0.1367  0.0924  0.9863
              Bcc     0.0109     1.458     0.520     0.486  0.9357  0.3390  0.0979
 
              Baa    -0.0023    -0.315    -0.112    -0.105 -0.4405  0.8973 -0.0280
    14 C(13)  Bbb    -0.0016    -0.216    -0.077    -0.072 -0.0021  0.0301  0.9995
              Bcc     0.0040     0.531     0.189     0.177  0.8977  0.4404 -0.0114
 
              Baa    -0.0017    -0.222    -0.079    -0.074  0.8227 -0.5586 -0.1061
    15 C(13)  Bbb    -0.0012    -0.167    -0.060    -0.056  0.0688 -0.0874  0.9938
              Bcc     0.0029     0.389     0.139     0.130  0.5644  0.8248  0.0335
 
              Baa    -0.0065    -0.873    -0.311    -0.291  0.3253  0.9362 -0.1328
    16 C(13)  Bbb    -0.0044    -0.586    -0.209    -0.195  0.1367  0.0924  0.9863
              Bcc     0.0109     1.458     0.520     0.486  0.9357 -0.3390 -0.0979
 
              Baa    -0.0175    -0.675    -0.241    -0.225  0.7967  0.5959 -0.1004
    17 N(14)  Bbb     0.0079     0.304     0.108     0.101  0.0705  0.0734  0.9948
              Bcc     0.0096     0.371     0.132     0.124 -0.6002  0.7997 -0.0165
 
              Baa    -0.0248    -3.330    -1.188    -1.111  0.0882  0.0394  0.9953
    18 C(13)  Bbb     0.0049     0.658     0.235     0.219  0.8750  0.4744 -0.0963
              Bcc     0.0199     2.672     0.953     0.891 -0.4760  0.8794  0.0074
 
              Baa    -0.0017    -0.222    -0.079    -0.074  0.8227  0.5586  0.1061
    19 C(13)  Bbb    -0.0012    -0.167    -0.060    -0.056 -0.0688 -0.0874  0.9938
              Bcc     0.0029     0.389     0.139     0.130 -0.5644  0.8248  0.0335
 
              Baa    -0.0023    -0.315    -0.112    -0.105  0.4405  0.8973 -0.0280
    20 C(13)  Bbb    -0.0016    -0.216    -0.077    -0.072  0.0022  0.0301  0.9995
              Bcc     0.0040     0.531     0.189     0.177  0.8977 -0.4404  0.0113
 
              Baa    -0.0087    -1.170    -0.417    -0.390  0.0000  0.9993  0.0380
    21 C(13)  Bbb     0.0027     0.364     0.130     0.121  0.0000 -0.0380  0.9993
              Bcc     0.0060     0.806     0.288     0.269  1.0000  0.0000  0.0000
 
              Baa    -0.0343    -4.599    -1.641    -1.534  0.0063 -0.0224  0.9997
    22 C(13)  Bbb     0.0094     1.261     0.450     0.421 -0.4426  0.8964  0.0229
              Bcc     0.0249     3.337     1.191     1.113  0.8967  0.4427  0.0042
 
              Baa    -0.0152    -0.586    -0.209    -0.196  0.7472 -0.6645  0.0140
    23 N(14)  Bbb    -0.0015    -0.058    -0.021    -0.019 -0.1310 -0.1266  0.9833
              Bcc     0.0167     0.644     0.230     0.215  0.6516  0.7365  0.1816
 
              Baa    -0.0213    -2.856    -1.019    -0.953  0.0181  0.0558  0.9983
    24 C(13)  Bbb     0.0030     0.407     0.145     0.136  0.9333 -0.3590  0.0032
              Bcc     0.0182     2.449     0.874     0.817  0.3586  0.9317 -0.0585
 
              Baa    -0.0018    -0.241    -0.086    -0.080  0.8308 -0.4827  0.2769
    25 C(13)  Bbb    -0.0014    -0.192    -0.068    -0.064 -0.2280  0.1587  0.9606
              Bcc     0.0032     0.432     0.154     0.144  0.5077  0.8613 -0.0218
 
              Baa    -0.0016    -0.220    -0.079    -0.073 -0.4354  0.7451 -0.5052
    26 C(13)  Bbb    -0.0015    -0.201    -0.072    -0.067 -0.2798  0.4214  0.8626
              Bcc     0.0031     0.421     0.150     0.140  0.8556  0.5170  0.0250
 
              Baa    -0.0088    -1.183    -0.422    -0.395  0.9954  0.0785 -0.0548
    27 C(13)  Bbb     0.0036     0.480     0.171     0.160  0.0863 -0.4885  0.8683
              Bcc     0.0052     0.703     0.251     0.234 -0.0414  0.8690  0.4930
 
              Baa    -0.0046    -2.442    -0.871    -0.814 -0.1366  0.9874 -0.0803
    28 H(1)   Bbb    -0.0041    -2.170    -0.774    -0.724 -0.4124  0.0170  0.9108
              Bcc     0.0086     4.612     1.646     1.538  0.9007  0.1576  0.4048
 
              Baa    -0.0046    -2.442    -0.871    -0.814  0.1366  0.9874 -0.0803
    29 H(1)   Bbb    -0.0041    -2.170    -0.774    -0.724  0.4124  0.0170  0.9108
              Bcc     0.0086     4.612     1.646     1.538  0.9007 -0.1576 -0.4049
 
              Baa    -0.0023    -1.233    -0.440    -0.411  0.0000  0.9996  0.0270
    30 H(1)   Bbb    -0.0013    -0.681    -0.243    -0.227  0.0000 -0.0270  0.9996
              Bcc     0.0036     1.914     0.683     0.638  1.0000  0.0000  0.0000
 
              Baa    -0.0023    -1.230    -0.439    -0.410  0.9960  0.0779 -0.0431
    31 H(1)   Bbb    -0.0014    -0.734    -0.262    -0.245  0.0424  0.0107  0.9990
              Bcc     0.0037     1.964     0.701     0.655 -0.0782  0.9969 -0.0073
 
              Baa    -0.0023    -1.230    -0.439    -0.410  0.9960 -0.0779  0.0431
    32 H(1)   Bbb    -0.0014    -0.734    -0.262    -0.245 -0.0424  0.0107  0.9990
              Bcc     0.0037     1.964     0.701     0.655  0.0782  0.9969 -0.0073
 
              Baa    -0.0018    -0.986    -0.352    -0.329  0.3511  0.9018  0.2521
    33 H(1)   Bbb    -0.0016    -0.843    -0.301    -0.281 -0.3076 -0.1432  0.9407
              Bcc     0.0034     1.828     0.652     0.610  0.8844 -0.4078  0.2271
 
              Baa    -0.0012    -0.664    -0.237    -0.221  0.3734  0.9249 -0.0716
    34 H(1)   Bbb    -0.0011    -0.566    -0.202    -0.189  0.1012  0.0361  0.9942
              Bcc     0.0023     1.230     0.439     0.410  0.9221 -0.3785 -0.0802
 
              Baa    -0.0011    -0.574    -0.205    -0.191  0.4798  0.8398  0.2539
    35 H(1)   Bbb    -0.0009    -0.479    -0.171    -0.160 -0.1970 -0.1789  0.9639
              Bcc     0.0020     1.052     0.375     0.351  0.8550 -0.5125  0.0796
 
              Baa    -0.0011    -0.597    -0.213    -0.199  0.7319  0.5255 -0.4339
    36 H(1)   Bbb    -0.0010    -0.542    -0.193    -0.181  0.3164  0.3018  0.8993
              Bcc     0.0021     1.139     0.407     0.380 -0.6035  0.7955 -0.0546
 
              Baa    -0.0013    -0.692    -0.247    -0.231  0.8394 -0.4411  0.3176
    37 H(1)   Bbb    -0.0011    -0.611    -0.218    -0.204 -0.1883  0.3122  0.9312
              Bcc     0.0024     1.303     0.465     0.435  0.5099  0.8414 -0.1790
 
              Baa    -0.0013    -0.688    -0.245    -0.229  0.5505  0.2290  0.8028
    38 H(1)   Bbb    -0.0012    -0.667    -0.238    -0.222  0.5631  0.6081 -0.5596
              Bcc     0.0025     1.355     0.483     0.452 -0.6163  0.7601  0.2058
 
              Baa    -0.0011    -0.574    -0.205    -0.191 -0.4798  0.8398  0.2539
    39 H(1)   Bbb    -0.0009    -0.479    -0.171    -0.160  0.1970 -0.1789  0.9640
              Bcc     0.0020     1.052     0.375     0.351  0.8550  0.5125 -0.0796
 
              Baa    -0.0018    -0.986    -0.352    -0.329 -0.3511  0.9018  0.2521
    40 H(1)   Bbb    -0.0016    -0.843    -0.301    -0.281  0.3076 -0.1432  0.9407
              Bcc     0.0034     1.828     0.652     0.610  0.8844  0.4078 -0.2271
 
              Baa    -0.0012    -0.664    -0.237    -0.221 -0.3734  0.9249 -0.0716
    41 H(1)   Bbb    -0.0011    -0.566    -0.202    -0.189 -0.1012  0.0361  0.9942
              Bcc     0.0023     1.230     0.439     0.410  0.9221  0.3785  0.0802
 
              Baa    -0.0013    -0.688    -0.245    -0.229 -0.5505  0.2290  0.8028
    42 H(1)   Bbb    -0.0012    -0.667    -0.238    -0.222 -0.5631  0.6081 -0.5596
              Bcc     0.0025     1.355     0.483     0.452  0.6163  0.7601  0.2058
 
              Baa    -0.0011    -0.597    -0.213    -0.199  0.7319 -0.5255  0.4339
    43 H(1)   Bbb    -0.0010    -0.542    -0.193    -0.181 -0.3164  0.3018  0.8993
              Bcc     0.0021     1.139     0.407     0.380  0.6035  0.7955 -0.0546
 
              Baa    -0.0011    -0.607    -0.217    -0.202  0.8576 -0.4640 -0.2220
    44 H(1)   Bbb    -0.0009    -0.491    -0.175    -0.164  0.1555 -0.1776  0.9717
              Bcc     0.0021     1.098     0.392     0.366  0.4903  0.8679  0.0801
 
              Baa    -0.0011    -0.607    -0.217    -0.202  0.8576  0.4640  0.2221
    45 H(1)   Bbb    -0.0009    -0.491    -0.175    -0.164 -0.1556 -0.1776  0.9717
              Bcc     0.0021     1.098     0.392     0.366 -0.4903  0.8679  0.0801
 
              Baa    -0.0012    -0.616    -0.220    -0.205 -0.5020  0.8374 -0.2162
    46 H(1)   Bbb    -0.0011    -0.575    -0.205    -0.192 -0.2361  0.1078  0.9657
              Bcc     0.0022     1.190     0.425     0.397  0.8320  0.5358  0.1436
 
              Baa    -0.0013    -0.692    -0.247    -0.231  0.8394  0.4411 -0.3176
    47 H(1)   Bbb    -0.0011    -0.611    -0.218    -0.204  0.1883  0.3122  0.9312
              Bcc     0.0024     1.303     0.465     0.435 -0.5099  0.8414 -0.1790
 
              Baa    -0.0012    -0.616    -0.220    -0.205  0.5019  0.8374 -0.2162
    48 H(1)   Bbb    -0.0011    -0.575    -0.205    -0.192  0.2361  0.1078  0.9657
              Bcc     0.0022     1.190     0.425     0.397  0.8320 -0.5358 -0.1436
 
              Baa    -0.0952     6.892     2.459     2.299  0.1849  0.9796  0.0784
    49 O(17)  Bbb    -0.0911     6.590     2.352     2.198  0.9338 -0.1502 -0.3247
              Bcc     0.1863   -13.482    -4.811    -4.497  0.3063 -0.1332  0.9426
 
              Baa    -0.0122    -6.518    -2.326    -2.174  0.7457 -0.6522 -0.1363
    50 H(1)   Bbb    -0.0062    -3.325    -1.186    -1.109  0.6062  0.5793  0.5448
              Bcc     0.0184     9.843     3.512     3.283 -0.2764 -0.4889  0.8274
 
              Baa    -0.0122    -6.534    -2.331    -2.179  0.9534  0.2946 -0.0647
    51 H(1)   Bbb    -0.0062    -3.314    -1.183    -1.106 -0.2921  0.8485 -0.4414
              Bcc     0.0185     9.848     3.514     3.285 -0.0752  0.4397  0.8950
 

 ---------------------------------------------------------------------------------

 CPIOFr:  IOpCl= 1 IRwI=-1 IRwCP=  731 ICalc= -1 LCPTot=      338354 Len1MO=     1072622 IndFrg=      338354
 CPIOFr:  IOpCl= 1 IRwI=-1 IRwCP=  731 ICalc=  0 LCPTot=      338354 Len1MO=     1072622 IndFrg=     1410976
 Counterpoise: doing DCBS calculation for fragment   1 NewBq=T
 Basis read from rwf:  (6D, 7F)
 There are   464 symmetry adapted cartesian basis functions of A   symmetry.
 There are   461 symmetry adapted basis functions of A   symmetry.
   461 basis functions,   904 primitive gaussians,   464 cartesian basis functions
     5 alpha electrons        5 beta electrons
       nuclear repulsion energy         9.0004465768 Hartrees.
 NAtoms=   51 NActive=   51 NUniq=   51 SFac= 1.00D+00 NAtFMM=   60 NAOKFM=F Big=F
 Integral buffers will be    131072 words long.
 Raffenetti 2 integral format.
 Two-electron integral symmetry is turned on.
 One-electron integrals computed using PRISM.
 NBasis=   461 RedAO= T EigKep=  7.32D-04  NBF=   461
 NBsUse=   461 1.00D-06 EigRej= -1.00D+00 NBFU=   461
 ExpMin= 4.30D-02 ExpMax= 6.61D+04 ExpMxC= 9.93D+03 IAcc=3 IRadAn=         5 AccDes= 0.00D+00
 Harris functional with IExCor= 1009 and IRadAn=       5 diagonalized for initial guess.
 HarFok:  IExCor= 1009 AccDes= 0.00D+00 IRadAn=         5 IDoV= 1 UseB2=F ITyADJ=14
 ICtDFT=  3500011 ScaDFX=  1.000000  1.000000  1.000000  1.000000
 FoFCou: FMM=F IPFlag=           0 FMFlag=      100000 FMFlg1=           0
         NFxFlg=           0 DoJE=T BraDBF=F KetDBF=T FulRan=T
         wScrn=  0.000000 ICntrl=     500 IOpCl=  0 I1Cent=   200000004 NGrid=           0
         NMat0=    1 NMatS0=      1 NMatT0=    0 NMatD0=    1 NMtDS0=    0 NMtDT0=    0
 Petite list used in FoFCou.
 Initial guess <Sx>= 0.0000 <Sy>= 0.0000 <Sz>= 0.0000 <S**2>= 0.0000 S= 0.0000
 Requested convergence on RMS density matrix=1.00D-08 within 128 cycles.
 Requested convergence on MAX density matrix=1.00D-06.
 Requested convergence on             energy=1.00D-06.
 No special actions if energy rises.
 SCF Done:  E(UTPSS-TPSS) =  -76.4186186519     A.U. after    7 cycles
            NFock=  7  Conv=0.78D-08     -V/T= 2.0087
 <Sx>= 0.0000 <Sy>= 0.0000 <Sz>= 0.0000 <S**2>= 0.0000 S= 0.0000
 <L.S>= 0.000000000000E+00
 Annihilation of the first spin contaminant:
 S**2 before annihilation     0.0000,   after     0.0000

 **********************************************************************

            Population analysis using the SCF density.

 **********************************************************************

 Orbital symmetries:
 Alpha Orbitals:
       Occupied  (A) (A) (A) (A) (A)
       Virtual   (A) (A) (A) (A) (A) (A) (A) (A) (A) (A) (A) (A)
                 (A) (A) (A) (A) (A) (A) (A) (A) (A) (A) (A) (A)
                 (A) (A) (A) (A) (A) (A) (A) (A) (A) (A) (A) (A)
                 (A) (A) (A) (A) (A) (A) (A) (A) (A) (A) (A) (A)
                 (A) (A) (A) (A) (A) (A) (A) (A) (A) (A) (A) (A)
                 (A) (A) (A) (A) (A) (A) (A) (A) (A) (A) (A) (A)
                 (A) (A) (A) (A) (A) (A) (A) (A) (A) (A) (A) (A)
                 (A) (A) (A) (A) (A) (A) (A) (A) (A) (A) (A) (A)
                 (A) (A) (A) (A) (A) (A) (A) (A) (A) (A) (A) (A)
                 (A) (A) (A) (A) (A) (A) (A) (A) (A) (A) (A) (A)
                 (A) (A) (A) (A) (A) (A) (A) (A) (A) (A) (A) (A)
                 (A) (A) (A) (A) (A) (A) (A) (A) (A) (A) (A) (A)
                 (A) (A) (A) (A) (A) (A) (A) (A) (A) (A) (A) (A)
                 (A) (A) (A) (A) (A) (A) (A) (A) (A) (A) (A) (A)
                 (A) (A) (A) (A) (A) (A) (A) (A) (A) (A) (A) (A)
                 (A) (A) (A) (A) (A) (A) (A) (A) (A) (A) (A) (A)
                 (A) (A) (A) (A) (A) (A) (A) (A) (A) (A) (A) (A)
                 (A) (A) (A) (A) (A) (A) (A) (A) (A) (A) (A) (A)
                 (A) (A) (A) (A) (A) (A) (A) (A) (A) (A) (A) (A)
                 (A) (A) (A) (A) (A) (A) (A) (A) (A) (A) (A) (A)
                 (A) (A) (A) (A) (A) (A) (A) (A) (A) (A) (A) (A)
                 (A) (A) (A) (A) (A) (A) (A) (A) (A) (A) (A) (A)
                 (A) (A) (A) (A) (A) (A) (A) (A) (A) (A) (A) (A)
                 (A) (A) (A) (A) (A) (A) (A) (A) (A) (A) (A) (A)
                 (A) (A) (A) (A) (A) (A) (A) (A) (A) (A) (A) (A)
                 (A) (A) (A) (A) (A) (A) (A) (A) (A) (A) (A) (A)
                 (A) (A) (A) (A) (A) (A) (A) (A) (A) (A) (A) (A)
                 (A) (A) (A) (A) (A) (A) (A) (A) (A) (A) (A) (A)
                 (A) (A) (A) (A) (A) (A) (A) (A) (A) (A) (A) (A)
                 (A) (A) (A) (A) (A) (A) (A) (A) (A) (A) (A) (A)
                 (A) (A) (A) (A) (A) (A) (A) (A) (A) (A) (A) (A)
                 (A) (A) (A) (A) (A) (A) (A) (A) (A) (A) (A) (A)
                 (A) (A) (A) (A) (A) (A) (A) (A) (A) (A) (A) (A)
                 (A) (A) (A) (A) (A) (A) (A) (A) (A) (A) (A) (A)
                 (A) (A) (A) (A) (A) (A) (A) (A) (A) (A) (A) (A)
                 (A) (A) (A) (A) (A) (A) (A) (A) (A) (A) (A) (A)
                 (A) (A) (A) (A) (A) (A) (A) (A) (A) (A) (A) (A)
                 (A) (A) (A) (A) (A) (A) (A) (A) (A) (A) (A) (A)
 Beta  Orbitals:
       Occupied  (A) (A) (A) (A) (A)
       Virtual   (A) (A) (A) (A) (A) (A) (A) (A) (A) (A) (A) (A)
                 (A) (A) (A) (A) (A) (A) (A) (A) (A) (A) (A) (A)
                 (A) (A) (A) (A) (A) (A) (A) (A) (A) (A) (A) (A)
                 (A) (A) (A) (A) (A) (A) (A) (A) (A) (A) (A) (A)
                 (A) (A) (A) (A) (A) (A) (A) (A) (A) (A) (A) (A)
                 (A) (A) (A) (A) (A) (A) (A) (A) (A) (A) (A) (A)
                 (A) (A) (A) (A) (A) (A) (A) (A) (A) (A) (A) (A)
                 (A) (A) (A) (A) (A) (A) (A) (A) (A) (A) (A) (A)
                 (A) (A) (A) (A) (A) (A) (A) (A) (A) (A) (A) (A)
                 (A) (A) (A) (A) (A) (A) (A) (A) (A) (A) (A) (A)
                 (A) (A) (A) (A) (A) (A) (A) (A) (A) (A) (A) (A)
                 (A) (A) (A) (A) (A) (A) (A) (A) (A) (A) (A) (A)
                 (A) (A) (A) (A) (A) (A) (A) (A) (A) (A) (A) (A)
                 (A) (A) (A) (A) (A) (A) (A) (A) (A) (A) (A) (A)
                 (A) (A) (A) (A) (A) (A) (A) (A) (A) (A) (A) (A)
                 (A) (A) (A) (A) (A) (A) (A) (A) (A) (A) (A) (A)
                 (A) (A) (A) (A) (A) (A) (A) (A) (A) (A) (A) (A)
                 (A) (A) (A) (A) (A) (A) (A) (A) (A) (A) (A) (A)
                 (A) (A) (A) (A) (A) (A) (A) (A) (A) (A) (A) (A)
                 (A) (A) (A) (A) (A) (A) (A) (A) (A) (A) (A) (A)
                 (A) (A) (A) (A) (A) (A) (A) (A) (A) (A) (A) (A)
                 (A) (A) (A) (A) (A) (A) (A) (A) (A) (A) (A) (A)
                 (A) (A) (A) (A) (A) (A) (A) (A) (A) (A) (A) (A)
                 (A) (A) (A) (A) (A) (A) (A) (A) (A) (A) (A) (A)
                 (A) (A) (A) (A) (A) (A) (A) (A) (A) (A) (A) (A)
                 (A) (A) (A) (A) (A) (A) (A) (A) (A) (A) (A) (A)
                 (A) (A) (A) (A) (A) (A) (A) (A) (A) (A) (A) (A)
                 (A) (A) (A) (A) (A) (A) (A) (A) (A) (A) (A) (A)
                 (A) (A) (A) (A) (A) (A) (A) (A) (A) (A) (A) (A)
                 (A) (A) (A) (A) (A) (A) (A) (A) (A) (A) (A) (A)
                 (A) (A) (A) (A) (A) (A) (A) (A) (A) (A) (A) (A)
                 (A) (A) (A) (A) (A) (A) (A) (A) (A) (A) (A) (A)
                 (A) (A) (A) (A) (A) (A) (A) (A) (A) (A) (A) (A)
                 (A) (A) (A) (A) (A) (A) (A) (A) (A) (A) (A) (A)
                 (A) (A) (A) (A) (A) (A) (A) (A) (A) (A) (A) (A)
                 (A) (A) (A) (A) (A) (A) (A) (A) (A) (A) (A) (A)
                 (A) (A) (A) (A) (A) (A) (A) (A) (A) (A) (A) (A)
                 (A) (A) (A) (A) (A) (A) (A) (A) (A) (A) (A) (A)
 The electronic state is 1-A.
 Alpha  occ. eigenvalues --  -18.91246  -0.93768  -0.47931  -0.33139  -0.24994
 Alpha virt. eigenvalues --    0.00138   0.05289   0.05791   0.06238   0.11224
 Alpha virt. eigenvalues --    0.11649   0.12492   0.13966   0.15558   0.16455
 Alpha virt. eigenvalues --    0.16639   0.19196   0.19385   0.20214   0.22608
 Alpha virt. eigenvalues --    0.23599   0.24096   0.24757   0.26174   0.27066
 Alpha virt. eigenvalues --    0.27645   0.28250   0.28913   0.29160   0.29828
 Alpha virt. eigenvalues --    0.30284   0.31337   0.31661   0.33062   0.33749
 Alpha virt. eigenvalues --    0.34686   0.35545   0.35751   0.36935   0.38357
 Alpha virt. eigenvalues --    0.38730   0.38984   0.40298   0.41312   0.41874
 Alpha virt. eigenvalues --    0.42685   0.43857   0.44227   0.44604   0.45599
 Alpha virt. eigenvalues --    0.46415   0.47213   0.47787   0.48758   0.49239
 Alpha virt. eigenvalues --    0.50645   0.51954   0.52232   0.52718   0.53062
 Alpha virt. eigenvalues --    0.54446   0.54627   0.55373   0.57273   0.57858
 Alpha virt. eigenvalues --    0.58529   0.58939   0.59136   0.60972   0.61641
 Alpha virt. eigenvalues --    0.62116   0.63670   0.64004   0.64435   0.65044
 Alpha virt. eigenvalues --    0.65822   0.66216   0.66579   0.67025   0.67592
 Alpha virt. eigenvalues --    0.68643   0.69164   0.69235   0.71402   0.72106
 Alpha virt. eigenvalues --    0.72515   0.73393   0.74652   0.75238   0.76416
 Alpha virt. eigenvalues --    0.77214   0.77530   0.79326   0.80200   0.80798
 Alpha virt. eigenvalues --    0.82235   0.83122   0.84831   0.85078   0.85659
 Alpha virt. eigenvalues --    0.86341   0.87046   0.87614   0.88261   0.89463
 Alpha virt. eigenvalues --    0.89809   0.90997   0.92832   0.93419   0.93836
 Alpha virt. eigenvalues --    0.94183   0.95311   0.97418   0.98003   1.00642
 Alpha virt. eigenvalues --    1.00781   1.01677   1.02376   1.04027   1.06067
 Alpha virt. eigenvalues --    1.07126   1.08404   1.08861   1.13355   1.14098
 Alpha virt. eigenvalues --    1.15353   1.16223   1.16592   1.19745   1.21338
 Alpha virt. eigenvalues --    1.22050   1.22538   1.25010   1.26586   1.32319
 Alpha virt. eigenvalues --    1.33297   1.35360   1.37029   1.47745   1.53191
 Alpha virt. eigenvalues --    1.55114   1.58631   1.61753   1.64610   1.69344
 Alpha virt. eigenvalues --    1.73180   1.74248   1.77303   1.79521   1.81264
 Alpha virt. eigenvalues --    1.85214   1.86966   1.89513   1.90951   1.92113
 Alpha virt. eigenvalues --    1.93952   1.95545   1.95709   1.96318   1.96771
 Alpha virt. eigenvalues --    1.98801   1.99148   1.99514   2.01867   2.02157
 Alpha virt. eigenvalues --    2.04455   2.06848   2.06996   2.08653   2.10416
 Alpha virt. eigenvalues --    2.10915   2.12817   2.14012   2.14188   2.15576
 Alpha virt. eigenvalues --    2.19695   2.20650   2.21015   2.23602   2.24499
 Alpha virt. eigenvalues --    2.25892   2.27958   2.29230   2.29906   2.31017
 Alpha virt. eigenvalues --    2.32546   2.33810   2.36972   2.38499   2.39845
 Alpha virt. eigenvalues --    2.41787   2.42345   2.42744   2.43710   2.45162
 Alpha virt. eigenvalues --    2.45780   2.49137   2.49582   2.49847   2.51735
 Alpha virt. eigenvalues --    2.53170   2.56480   2.56868   2.57674   2.58794
 Alpha virt. eigenvalues --    2.60808   2.63054   2.63462   2.65248   2.65482
 Alpha virt. eigenvalues --    2.66096   2.66492   2.67826   2.68321   2.69464
 Alpha virt. eigenvalues --    2.69997   2.70322   2.70672   2.71156   2.71740
 Alpha virt. eigenvalues --    2.72960   2.73287   2.75203   2.76054   2.76835
 Alpha virt. eigenvalues --    2.76941   2.77594   2.79981   2.81193   2.82345
 Alpha virt. eigenvalues --    2.82739   2.84000   2.84951   2.85480   2.86809
 Alpha virt. eigenvalues --    2.87288   2.88637   2.89134   2.89882   2.90090
 Alpha virt. eigenvalues --    2.90919   2.91401   2.92641   2.93107   2.93909
 Alpha virt. eigenvalues --    2.94131   2.94820   2.95769   2.96248   2.96463
 Alpha virt. eigenvalues --    2.97275   2.98395   2.98574   2.99122   2.99726
 Alpha virt. eigenvalues --    3.00267   3.00511   3.00936   3.02617   3.03747
 Alpha virt. eigenvalues --    3.03829   3.04108   3.07022   3.08031   3.08175
 Alpha virt. eigenvalues --    3.09633   3.10435   3.10562   3.12205   3.12362
 Alpha virt. eigenvalues --    3.13749   3.14082   3.17679   3.18352   3.18602
 Alpha virt. eigenvalues --    3.20082   3.20925   3.21220   3.22323   3.22623
 Alpha virt. eigenvalues --    3.23905   3.25356   3.25979   3.26342   3.27217
 Alpha virt. eigenvalues --    3.28207   3.29769   3.30743   3.32412   3.32833
 Alpha virt. eigenvalues --    3.33259   3.34433   3.34637   3.36343   3.36553
 Alpha virt. eigenvalues --    3.38696   3.39553   3.40390   3.40996   3.42473
 Alpha virt. eigenvalues --    3.43124   3.44340   3.45898   3.47148   3.48718
 Alpha virt. eigenvalues --    3.49384   3.50654   3.51413   3.51686   3.53822
 Alpha virt. eigenvalues --    3.54335   3.55384   3.56155   3.57054   3.58502
 Alpha virt. eigenvalues --    3.58824   3.60551   3.62116   3.62289   3.65048
 Alpha virt. eigenvalues --    3.66981   3.67808   3.68520   3.68903   3.69990
 Alpha virt. eigenvalues --    3.70314   3.71327   3.71912   3.73639   3.74472
 Alpha virt. eigenvalues --    3.75433   3.75837   3.76742   3.78294   3.78614
 Alpha virt. eigenvalues --    3.80438   3.82233   3.84285   3.85325   3.86580
 Alpha virt. eigenvalues --    3.87319   3.89044   3.91119   3.92074   3.93197
 Alpha virt. eigenvalues --    3.93694   3.94155   3.95110   3.95471   3.96291
 Alpha virt. eigenvalues --    3.96734   3.97636   3.99431   4.00418   4.02107
 Alpha virt. eigenvalues --    4.02672   4.03773   4.04224   4.05724   4.08480
 Alpha virt. eigenvalues --    4.10041   4.10536   4.12260   4.12571   4.16506
 Alpha virt. eigenvalues --    4.17754   4.19644   4.20055   4.20939   4.21247
 Alpha virt. eigenvalues --    4.21607   4.23054   4.23808   4.24269   4.26512
 Alpha virt. eigenvalues --    4.31956   4.36921   4.38536   4.41987   4.43130
 Alpha virt. eigenvalues --    4.47288   4.50303   4.51223   4.52928   4.54721
 Alpha virt. eigenvalues --    4.57589   4.60774   4.65211   4.68871   4.71895
 Alpha virt. eigenvalues --    4.72665   4.73780   4.77357   4.79077   4.81315
 Alpha virt. eigenvalues --    4.81947   4.83135   4.86000   4.86251   4.89048
 Alpha virt. eigenvalues --    4.94303   4.97413   4.98156   5.02700   5.06456
 Alpha virt. eigenvalues --    5.07987   5.12199   5.13593   5.29939   5.30715
 Alpha virt. eigenvalues --    5.36692   5.38842   5.43227   5.46397   5.49630
 Alpha virt. eigenvalues --    5.52895   5.53498   5.58972   5.65548   5.79574
 Alpha virt. eigenvalues --    5.81498   5.93501   5.95411   6.17577   6.59677
 Alpha virt. eigenvalues --    6.66720  14.35937  14.36920  14.62209  14.91445
 Alpha virt. eigenvalues --   15.11944  22.98009  23.76764  23.79694  23.81444
 Alpha virt. eigenvalues --   23.82878  23.83706  23.87379  23.90369  23.92589
 Alpha virt. eigenvalues --   23.94411  23.94569  23.98704  24.07074  24.12353
 Alpha virt. eigenvalues --   24.21630  24.23881  24.40090  24.42189  24.44247
 Alpha virt. eigenvalues --   24.62574  30.87528  31.31588  31.31831  31.49424
 Alpha virt. eigenvalues --   38.01100  38.62801  73.54275  73.87123  73.91792
 Alpha virt. eigenvalues --  426.49287
  Beta  occ. eigenvalues --  -18.91246  -0.93768  -0.47931  -0.33139  -0.24994
  Beta virt. eigenvalues --    0.00138   0.05289   0.05791   0.06238   0.11224
  Beta virt. eigenvalues --    0.11649   0.12492   0.13966   0.15558   0.16455
  Beta virt. eigenvalues --    0.16639   0.19196   0.19385   0.20214   0.22608
  Beta virt. eigenvalues --    0.23599   0.24096   0.24757   0.26174   0.27066
  Beta virt. eigenvalues --    0.27645   0.28250   0.28913   0.29160   0.29828
  Beta virt. eigenvalues --    0.30284   0.31337   0.31661   0.33062   0.33749
  Beta virt. eigenvalues --    0.34686   0.35545   0.35751   0.36935   0.38357
  Beta virt. eigenvalues --    0.38730   0.38984   0.40298   0.41312   0.41874
  Beta virt. eigenvalues --    0.42685   0.43857   0.44227   0.44604   0.45599
  Beta virt. eigenvalues --    0.46415   0.47213   0.47787   0.48758   0.49239
  Beta virt. eigenvalues --    0.50645   0.51954   0.52232   0.52718   0.53062
  Beta virt. eigenvalues --    0.54446   0.54627   0.55373   0.57273   0.57858
  Beta virt. eigenvalues --    0.58529   0.58939   0.59136   0.60972   0.61641
  Beta virt. eigenvalues --    0.62116   0.63670   0.64004   0.64435   0.65044
  Beta virt. eigenvalues --    0.65822   0.66216   0.66579   0.67025   0.67592
  Beta virt. eigenvalues --    0.68643   0.69164   0.69235   0.71402   0.72106
  Beta virt. eigenvalues --    0.72515   0.73393   0.74652   0.75238   0.76416
  Beta virt. eigenvalues --    0.77214   0.77530   0.79326   0.80200   0.80798
  Beta virt. eigenvalues --    0.82235   0.83122   0.84831   0.85078   0.85659
  Beta virt. eigenvalues --    0.86341   0.87046   0.87614   0.88261   0.89463
  Beta virt. eigenvalues --    0.89809   0.90997   0.92832   0.93419   0.93836
  Beta virt. eigenvalues --    0.94183   0.95311   0.97418   0.98003   1.00642
  Beta virt. eigenvalues --    1.00781   1.01677   1.02376   1.04027   1.06067
  Beta virt. eigenvalues --    1.07126   1.08404   1.08861   1.13355   1.14098
  Beta virt. eigenvalues --    1.15353   1.16223   1.16592   1.19745   1.21338
  Beta virt. eigenvalues --    1.22050   1.22538   1.25010   1.26586   1.32319
  Beta virt. eigenvalues --    1.33297   1.35360   1.37029   1.47745   1.53191
  Beta virt. eigenvalues --    1.55114   1.58631   1.61753   1.64610   1.69344
  Beta virt. eigenvalues --    1.73180   1.74248   1.77303   1.79521   1.81264
  Beta virt. eigenvalues --    1.85214   1.86966   1.89513   1.90951   1.92113
  Beta virt. eigenvalues --    1.93952   1.95545   1.95709   1.96318   1.96771
  Beta virt. eigenvalues --    1.98801   1.99148   1.99514   2.01867   2.02157
  Beta virt. eigenvalues --    2.04455   2.06848   2.06996   2.08653   2.10416
  Beta virt. eigenvalues --    2.10915   2.12817   2.14012   2.14188   2.15576
  Beta virt. eigenvalues --    2.19695   2.20650   2.21015   2.23602   2.24499
[...]
    25   Atom       -0.000520      0.001898     -0.001378
    26   Atom        0.001809     -0.000411     -0.001398
    27   Atom       -0.008365      0.004776      0.003589
    28   Atom        0.006477     -0.004258     -0.002219
    29   Atom        0.006052     -0.004185     -0.001866
    30   Atom        0.003681     -0.002340     -0.001341
    31   Atom       -0.002225      0.003640     -0.001415
    32   Atom       -0.002347      0.003761     -0.001413
    33   Atom        0.002331     -0.000958     -0.001373
    34   Atom        0.001776     -0.000734     -0.001043
    35   Atom        0.001164     -0.000239     -0.000925
    36   Atom        0.000113      0.000944     -0.001057
    37   Atom       -0.000310      0.001401     -0.001091
    38   Atom        0.000210      0.000905     -0.001115
    39   Atom        0.001181     -0.000238     -0.000943
    40   Atom        0.002291     -0.000952     -0.001339
    41   Atom        0.001773     -0.000730     -0.001043
    42   Atom        0.000238      0.000932     -0.001170
    43   Atom        0.000122      0.000923     -0.001046
    44   Atom       -0.000366      0.001304     -0.000938
    45   Atom       -0.000341      0.001295     -0.000953
    46   Atom        0.001188     -0.000148     -0.001040
    47   Atom       -0.000304      0.001379     -0.001076
    48   Atom        0.001195     -0.000131     -0.001064
    49   Atom       -0.073088     -0.098678      0.171767
    50   Atom       -0.007392     -0.002552      0.009944
    51   Atom       -0.011754     -0.001185      0.012939
 --------------------------------------------------------
                        XY            XZ            YZ
 --------------------------------------------------------
     4   Atom        0.041103      0.055128     -0.352328
     5   Atom       -0.010137     -0.008620      0.010038
     6   Atom       -0.005115      0.000675     -0.002084
     7   Atom       -0.001890      0.000075      0.000025
     8   Atom       -0.001958     -0.000055      0.000090
     9   Atom       -0.006270      0.000384      0.000801
    10   Atom        0.000966     -0.000861      0.001515
    11   Atom        0.006426      0.001974     -0.001603
    12   Atom        0.007959      0.004964      0.006190
    13   Atom        0.005219      0.000547      0.000826
    14   Atom        0.002339      0.000020      0.000036
    15   Atom        0.001883     -0.000011      0.000014
    16   Atom       -0.005731     -0.001463      0.000668
    17   Atom       -0.008152      0.009409     -0.003541
    18   Atom       -0.006316     -0.002517      0.000664
    19   Atom       -0.001952     -0.000171      0.000110
    20   Atom       -0.002512      0.000066     -0.000070
    21   Atom        0.000018     -0.000549     -0.000535
    22   Atom        0.006216      0.000341      0.000858
    23   Atom        0.010315     -0.004625     -0.004932
    24   Atom        0.005246     -0.000597     -0.001370
    25   Atom        0.002054     -0.000087     -0.000029
    26   Atom        0.001942      0.000068      0.000101
    27   Atom       -0.001104      0.000579      0.000165
    28   Atom        0.001928      0.004670      0.000819
    29   Atom       -0.001844     -0.004552      0.000870
    30   Atom        0.000014     -0.000012     -0.000028
    31   Atom       -0.000470      0.000040     -0.000052
    32   Atom        0.000489     -0.000051     -0.000034
    33   Atom       -0.001887      0.000982     -0.000510
    34   Atom       -0.001226     -0.000256      0.000124
    35   Atom       -0.001372      0.000187     -0.000182
    36   Atom       -0.001591      0.000149     -0.000091
    37   Atom        0.001608     -0.000388     -0.000548
    38   Atom       -0.001768     -0.000500      0.000585
    39   Atom        0.001381     -0.000182     -0.000178
    40   Atom        0.001851     -0.000978     -0.000516
    41   Atom        0.001228      0.000227      0.000115
    42   Atom        0.001800      0.000530      0.000581
    43   Atom        0.001562     -0.000154     -0.000102
    44   Atom        0.001357      0.000170      0.000193
    45   Atom       -0.001368     -0.000167      0.000172
    46   Atom        0.001537      0.000406      0.000299
    47   Atom       -0.001585      0.000386     -0.000531
    48   Atom       -0.001549     -0.000404      0.000303
    49   Atom       -0.012873      0.086356     -0.038776
    50   Atom        0.006897     -0.005041     -0.010500
    51   Atom       -0.002919     -0.001348      0.010000
 --------------------------------------------------------


 ---------------------------------------------------------------------------------
              Anisotropic Spin Dipole Couplings in Principal Axis System
 ---------------------------------------------------------------------------------

       Atom             a.u.   MegaHertz   Gauss  10(-4) cm-1        Axes

              Baa    -1.4528  -183.461   -65.464   -61.196  0.9690 -0.2448 -0.0338
     4 Co(59) Bbb    -1.2612  -159.266   -56.830   -53.125  0.2468  0.9655  0.0828
              Bcc     2.7140   342.727   122.294   114.322  0.0123 -0.0886  0.9960
 
              Baa    -0.0130    -0.500    -0.178    -0.167  0.7548  0.6559 -0.0042
     5 N(14)  Bbb    -0.0068    -0.262    -0.093    -0.087  0.4476 -0.5103  0.7343
              Bcc     0.0198     0.762     0.272     0.254 -0.4795  0.5562  0.6788
 
              Baa    -0.0182    -2.439    -0.870    -0.813 -0.0163  0.0616  0.9980
     6 C(13)  Bbb     0.0017     0.231     0.082     0.077  0.9260  0.3775 -0.0082
              Bcc     0.0165     2.208     0.788     0.736 -0.3772  0.9240 -0.0632
 
              Baa    -0.0016    -0.220    -0.078    -0.073  0.8599  0.4644 -0.2120
     7 C(13)  Bbb    -0.0013    -0.169    -0.060    -0.056  0.1850  0.1037  0.9773
              Bcc     0.0029     0.389     0.139     0.130 -0.4758  0.8795 -0.0033
 
              Baa    -0.0015    -0.205    -0.073    -0.068  0.4735  0.7992 -0.3701
     8 C(13)  Bbb    -0.0014    -0.186    -0.066    -0.062  0.2086  0.3065  0.9287
              Bcc     0.0029     0.391     0.140     0.131  0.8557 -0.5170 -0.0216
 
              Baa    -0.0288    -3.859    -1.377    -1.287 -0.0110 -0.0225  0.9997
     9 C(13)  Bbb     0.0067     0.898     0.320     0.299  0.4579  0.8887  0.0251
              Bcc     0.0221     2.961     1.057     0.988  0.8890 -0.4580 -0.0005
 
              Baa    -0.0095    -1.274    -0.455    -0.425  0.9947 -0.0795  0.0650
    10 C(13)  Bbb     0.0031     0.412     0.147     0.137  0.1013  0.8626 -0.4956
              Bcc     0.0064     0.862     0.308     0.288 -0.0167  0.4996  0.8661
 
              Baa    -0.0204    -2.735    -0.976    -0.912 -0.0884  0.0634  0.9941
    11 C(13)  Bbb     0.0029     0.395     0.141     0.132  0.8603 -0.4981  0.1083
              Bcc     0.0174     2.341     0.835     0.781  0.5020  0.8648 -0.0105
 
              Baa    -0.0158    -0.611    -0.218    -0.204  0.9082 -0.4122 -0.0723
    12 N(14)  Bbb    -0.0005    -0.020    -0.007    -0.007  0.3110  0.7805 -0.5423
              Bcc     0.0164     0.631     0.225     0.211  0.2799  0.4701  0.8370
 
              Baa    -0.0065    -0.878    -0.313    -0.293 -0.2993  0.9156 -0.2684
    13 C(13)  Bbb    -0.0042    -0.564    -0.201    -0.188 -0.1346  0.2380  0.9619
              Bcc     0.0108     1.443     0.515     0.481  0.9446  0.3241  0.0520
 
              Baa    -0.0022    -0.295    -0.105    -0.098 -0.4351  0.8996 -0.0374
    14 C(13)  Bbb    -0.0016    -0.211    -0.075    -0.070 -0.0219  0.0309  0.9993
              Bcc     0.0038     0.506     0.181     0.169  0.9001  0.4356  0.0063
 
              Baa    -0.0016    -0.208    -0.074    -0.069  0.8446 -0.5344  0.0336
    15 C(13)  Bbb    -0.0011    -0.143    -0.051    -0.048 -0.0293  0.0166  0.9994
              Bcc     0.0026     0.351     0.125     0.117  0.5346  0.8451  0.0016
 
              Baa    -0.0066    -0.887    -0.316    -0.296  0.3583  0.9329 -0.0350
    16 C(13)  Bbb    -0.0040    -0.532    -0.190    -0.178  0.1162 -0.0074  0.9932
              Bcc     0.0106     1.419     0.506     0.473  0.9263 -0.3599 -0.1111
 
              Baa    -0.0166    -0.639    -0.228    -0.213  0.8777  0.4134 -0.2424
    17 N(14)  Bbb    -0.0006    -0.025    -0.009    -0.008 -0.2717  0.8460  0.4588
              Bcc     0.0172     0.664     0.237     0.221  0.3947 -0.3368  0.8548
 
              Baa    -0.0210    -2.821    -1.007    -0.941  0.0906 -0.0025  0.9959
    18 C(13)  Bbb     0.0031     0.417     0.149     0.139  0.8667  0.4928 -0.0776
              Bcc     0.0179     2.404     0.858     0.802 -0.4905  0.8702  0.0468
 
              Baa    -0.0016    -0.214    -0.076    -0.071  0.8294  0.5309  0.1737
    19 C(13)  Bbb    -0.0011    -0.149    -0.053    -0.050 -0.1196 -0.1350  0.9836
              Bcc     0.0027     0.362     0.129     0.121 -0.5457  0.8366  0.0485
 
              Baa    -0.0023    -0.309    -0.110    -0.103  0.4513  0.8911  0.0486
    20 C(13)  Bbb    -0.0016    -0.218    -0.078    -0.073 -0.0365 -0.0360  0.9987
              Bcc     0.0039     0.527     0.188     0.176  0.8916 -0.4524  0.0163
 
              Baa    -0.0089    -1.190    -0.425    -0.397  0.0004  0.9991  0.0436
    21 C(13)  Bbb     0.0033     0.442     0.158     0.147  0.2480 -0.0423  0.9678
              Bcc     0.0056     0.748     0.267     0.250  0.9688  0.0104 -0.2478
 
              Baa    -0.0287    -3.849    -1.373    -1.284 -0.0044 -0.0216  0.9998
    22 C(13)  Bbb     0.0067     0.895     0.319     0.298 -0.4555  0.8901  0.0172
              Bcc     0.0220     2.954     1.054     0.985  0.8902  0.4553  0.0137
 
              Baa    -0.0127    -0.490    -0.175    -0.163  0.7501 -0.6612  0.0120
    23 N(14)  Bbb    -0.0006    -0.024    -0.009    -0.008  0.3986  0.4666  0.7896
              Bcc     0.0133     0.514     0.183     0.171 -0.5277 -0.5875  0.6135
 
              Baa    -0.0183    -2.455    -0.876    -0.819  0.0179  0.0388  0.9991
    24 C(13)  Bbb     0.0015     0.206     0.073     0.069  0.9278 -0.3731 -0.0022
              Bcc     0.0168     2.249     0.802     0.750  0.3727  0.9270 -0.0427
 
              Baa    -0.0017    -0.229    -0.082    -0.076  0.8546 -0.4856  0.1841
    25 C(13)  Bbb    -0.0014    -0.184    -0.065    -0.061 -0.1523  0.1046  0.9828
              Bcc     0.0031     0.412     0.147     0.138  0.4965  0.8679 -0.0154
 
              Baa    -0.0016    -0.209    -0.074    -0.070 -0.4674  0.8214 -0.3267
    26 C(13)  Bbb    -0.0014    -0.186    -0.066    -0.062 -0.1848  0.2706  0.9448
              Bcc     0.0029     0.394     0.141     0.132  0.8645  0.5020  0.0253
 
              Baa    -0.0085    -1.139    -0.406    -0.380  0.9953  0.0835 -0.0489
    27 C(13)  Bbb     0.0036     0.484     0.173     0.161  0.0562 -0.0869  0.9946
              Bcc     0.0049     0.655     0.234     0.218 -0.0788  0.9927  0.0912
 
              Baa    -0.0046    -2.451    -0.875    -0.818 -0.1660  0.9860 -0.0137
    28 H(1)   Bbb    -0.0043    -2.268    -0.809    -0.756 -0.3905 -0.0529  0.9191
              Bcc     0.0088     4.719     1.684     1.574  0.9055  0.1579  0.3939
 
              Baa    -0.0045    -2.409    -0.860    -0.804  0.1252  0.9861 -0.1089
    29 H(1)   Bbb    -0.0039    -2.102    -0.750    -0.701  0.4213  0.0465  0.9057
              Bcc     0.0085     4.511     1.610     1.505  0.8983 -0.1593 -0.4096
 
              Baa    -0.0023    -1.249    -0.446    -0.417 -0.0023  0.9996  0.0280
    30 H(1)   Bbb    -0.0013    -0.715    -0.255    -0.239  0.0025 -0.0280  0.9996
              Bcc     0.0037     1.964     0.701     0.655  1.0000  0.0024 -0.0024
 
              Baa    -0.0023    -1.208    -0.431    -0.403  0.9960  0.0790 -0.0426
    31 H(1)   Bbb    -0.0014    -0.755    -0.269    -0.252  0.0416  0.0142  0.9990
              Bcc     0.0037     1.963     0.700     0.655 -0.0795  0.9968 -0.0108
 
              Baa    -0.0024    -1.274    -0.455    -0.425  0.9957 -0.0789  0.0494
    32 H(1)   Bbb    -0.0014    -0.753    -0.269    -0.251 -0.0486  0.0112  0.9988
              Bcc     0.0038     2.027     0.723     0.676  0.0794  0.9968 -0.0073
 
              Baa    -0.0018    -0.977    -0.349    -0.326  0.3479  0.9015  0.2572
    33 H(1)   Bbb    -0.0016    -0.859    -0.307    -0.287 -0.3060 -0.1501  0.9401
              Bcc     0.0034     1.837     0.655     0.613  0.8862 -0.4058  0.2236
 
              Baa    -0.0012    -0.659    -0.235    -0.220  0.3672  0.9241 -0.1060
    34 H(1)   Bbb    -0.0011    -0.568    -0.203    -0.190  0.1182  0.0667  0.9907
              Bcc     0.0023     1.227     0.438     0.409  0.9226 -0.3764 -0.0847
 
              Baa    -0.0011    -0.587    -0.209    -0.196  0.4634  0.8130  0.3527
    35 H(1)   Bbb    -0.0009    -0.494    -0.176    -0.165 -0.2537 -0.2596  0.9318
              Bcc     0.0020     1.081     0.386     0.360  0.8491 -0.5212  0.0860
 
              Baa    -0.0012    -0.618    -0.220    -0.206  0.6735  0.4857 -0.5572
    36 H(1)   Bbb    -0.0010    -0.546    -0.195    -0.182  0.4156  0.3745  0.8288
              Bcc     0.0022     1.164     0.415     0.388 -0.6112  0.7898 -0.0504
 
              Baa    -0.0013    -0.696    -0.248    -0.232  0.7926 -0.3737  0.4819
    37 H(1)   Bbb    -0.0012    -0.634    -0.226    -0.212 -0.3369  0.3904  0.8568
              Bcc     0.0025     1.330     0.475     0.444  0.5083  0.8414 -0.1835
 
              Baa    -0.0013    -0.685    -0.244    -0.228  0.3953  0.0749  0.9155
    38 H(1)   Bbb    -0.0012    -0.661    -0.236    -0.221  0.6757  0.6514 -0.3451
              Bcc     0.0025     1.346     0.480     0.449 -0.6222  0.7550  0.2069
 
              Baa    -0.0011    -0.589    -0.210    -0.196 -0.4582  0.8073  0.3720
    39 H(1)   Bbb    -0.0009    -0.502    -0.179    -0.167  0.2604 -0.2782  0.9246
              Bcc     0.0020     1.091     0.389     0.364  0.8498  0.5205 -0.0828
 
              Baa    -0.0018    -0.966    -0.345    -0.322 -0.3380  0.8979  0.2820
    40 H(1)   Bbb    -0.0016    -0.841    -0.300    -0.281  0.3184 -0.1729  0.9321
              Bcc     0.0034     1.807     0.645     0.603  0.8857  0.4048 -0.2274
 
              Baa    -0.0012    -0.659    -0.235    -0.220 -0.3676  0.9222 -0.1202
    41 H(1)   Bbb    -0.0011    -0.566    -0.202    -0.189 -0.1153  0.0831  0.9899
              Bcc     0.0023     1.224     0.437     0.408  0.9228  0.3777  0.0757
 
              Baa    -0.0013    -0.720    -0.257    -0.240 -0.3944  0.0782  0.9156
    42 H(1)   Bbb    -0.0012    -0.658    -0.235    -0.219  0.6738 -0.6529  0.3460
              Bcc     0.0026     1.378     0.492     0.460  0.6248  0.7534  0.2048
 
              Baa    -0.0011    -0.605    -0.216    -0.202  0.6520 -0.4653  0.5987
    43 H(1)   Bbb    -0.0010    -0.539    -0.193    -0.180 -0.4465  0.4026  0.7991
              Bcc     0.0021     1.144     0.408     0.382  0.6129  0.7883 -0.0547
 
              Baa    -0.0011    -0.608    -0.217    -0.203  0.8474 -0.4479 -0.2852
    44 H(1)   Bbb    -0.0009    -0.503    -0.180    -0.168  0.2108 -0.2092  0.9549
              Bcc     0.0021     1.111     0.397     0.371  0.4873  0.8693  0.0829
 
              Baa    -0.0011    -0.608    -0.217    -0.203  0.8299  0.4423  0.3399
    45 H(1)   Bbb    -0.0009    -0.506    -0.181    -0.169 -0.2609 -0.2307  0.9374
              Bcc     0.0021     1.114     0.398     0.372 -0.4931  0.8667  0.0761
 
              Baa    -0.0012    -0.624    -0.223    -0.208 -0.4299  0.7799 -0.4550
    46 H(1)   Bbb    -0.0011    -0.588    -0.210    -0.196 -0.3644  0.3112  0.8777
              Bcc     0.0023     1.212     0.433     0.404  0.8261  0.5431  0.1504
 
              Baa    -0.0013    -0.689    -0.246    -0.230  0.7810  0.3624 -0.5087
    47 H(1)   Bbb    -0.0012    -0.620    -0.221    -0.207  0.3619  0.4013  0.8414
              Bcc     0.0025     1.309     0.467     0.437 -0.5091  0.8412 -0.1822
 
              Baa    -0.0012    -0.628    -0.224    -0.209  0.3532  0.7020 -0.6184
    48 H(1)   Bbb    -0.0011    -0.595    -0.212    -0.199  0.4417  0.4575  0.7717
              Bcc     0.0023     1.223     0.436     0.408  0.8247 -0.5457 -0.1485
 
              Baa    -0.1043     7.544     2.692     2.516  0.1752  0.9810  0.0830
    49 O(17)  Bbb    -0.1004     7.265     2.592     2.423  0.9378 -0.1406 -0.3176
              Bcc     0.2047   -14.809    -5.284    -4.940  0.2999 -0.1335  0.9446
 
              Baa    -0.0126    -6.703    -2.392    -2.236  0.7398 -0.6578 -0.1412
    50 H(1)   Bbb    -0.0058    -3.071    -1.096    -1.024  0.6049  0.5584  0.5677
              Bcc     0.0183     9.773     3.487     3.260 -0.2946 -0.5054  0.8110
 
              Baa    -0.0126    -6.717    -2.397    -2.240  0.9503  0.3036 -0.0687
    51 H(1)   Bbb    -0.0057    -3.066    -1.094    -1.023 -0.2995  0.8320 -0.4669
              Bcc     0.0183     9.783     3.491     3.263 -0.0845  0.4643  0.8816
 

 ---------------------------------------------------------------------------------

 CPIOFr:  IOpCl= 1 IRwI=-1 IRwCP=  731 ICalc=  4 LCPTot=      338354 Len1MO=     1072622 IndFrg=     5701464
 CPIOFr:  IOpCl= 1 IRwI=-2 IRwCP=  731 ICalc=  0 LCPTot=      338354 Len1MO=     1072622 IndFrg=     1410976
 Counterpoise corrected energy =   -2491.333620979603
                   BSSE energy =       0.010835017077
               sum of monomers =   -2491.327564077777
           complexation energy =     -10.60 kcal/mole (raw)
           complexation energy =      -3.80 kcal/mole (corrected)
 1\1\GINC-NID01605\SP\UTPSSTPSS\6-31G(d)\C19H25Co1N4O2(1+,2)\SHOSTY\02-
 Nov-2015\0\\# tpsstpss/6-31G(d) integral=ultrafine scf=tight counterpo
 ise=2\\H2O.Co.2.Corrin.H2O\\1,2\O,0,-0.182428,0.206267,-2.306619\H,0,0
 .065529,-0.609522,-2.7851\H,0,0.392992,0.903937,-2.678368\Co,0,-0.0309
 63,0.,-0.000001\N,0,-1.326193,-1.415207,-0.035824\C,0,-1.039803,-2.773
 733,0.034673\C,0,-2.311344,-3.593028,0.168131\C,0,-3.426992,-2.556575,
 -0.064304\C,0,-2.679085,-1.238636,-0.027661\C,0,0.224801,-3.32397,0.01
 5984\C,0,1.405957,-2.546253,-0.096571\N,0,1.366297,-1.22372,-0.145445\
 C,0,2.730415,-0.666532,-0.372121\C,0,3.671073,-1.802138,0.072943\C,0,2
 .827634,-3.070936,-0.211231\C,0,2.730417,0.666519,0.372125\N,0,1.36630
 3,1.223714,0.145445\C,0,1.405968,2.546247,0.096574\C,0,2.827647,3.0709
 23,0.21124\C,0,3.671081,1.802121,-0.072935\C,0,-3.314357,0.000007,0.00
 0004\C,0,-2.679079,1.238647,0.027666\N,0,-1.326186,1.415212,0.035822\C
 ,0,-1.03979,2.773737,-0.03468\C,0,-2.311328,3.593034,-0.168149\C,0,-3.
 426978,2.556591,0.064317\C,0,0.224816,3.323969,-0.015986\H,0,2.843799,
 -0.465782,-1.452107\H,0,2.843797,0.465768,1.452112\H,0,-4.402474,0.000
 01,0.000008\H,0,0.317579,4.405354,-0.083599\H,0,0.317559,-4.405356,0.0
 83595\H,0,3.870695,1.718408,-1.150872\H,0,4.630925,1.794981,0.454413\H
 ,0,-4.22119,-2.593578,0.691038\H,0,3.027942,3.895313,-0.484156\H,0,-2.
 368654,4.027642,-1.17642\H,0,3.005459,3.4557,1.228105\H,0,-4.221194,2.
 593596,-0.691005\H,0,3.870685,-1.718423,1.15088\H,0,4.630918,-1.795003
 ,-0.454403\H,0,3.005447,-3.455718,-1.228094\H,0,3.027923,-3.895325,0.4
 84167\H,0,-2.332577,4.426171,0.544365\H,0,-2.3326,-4.426145,-0.544407\
 H,0,-3.907606,2.685628,1.045314\H,0,-2.368666,-4.027664,1.176388\H,0,-
 3.907647,-2.685602,-1.045288\O,0,-0.182445,-0.206261,2.306609\H,0,0.39
 2972,-0.903928,2.67837\H,0,0.065503,0.609532,2.785088\\Version=AS64L-G
 09RevD.01\State=2-A\HF=-2414.9168493\S2=0.761482\S2-1=0.\S2A=0.750103\
 RMSD=4.843e-09\Dipole=0.7424357,-0.0095572,0.0876705\Quadrupole=6.0549
 403,5.8056629,-11.8606032,-0.035924,-0.0302394,0.3450469\PG=C01 [X(C19
 H25Co1N4O2)]\\@


 IF MATHEMATICALLY YOU END UP WITH THE INCORRECT ANSWER,
 TRY MULTIPLYING BY THE PAGE NUMBER.
 Job cpu time:       0 days  0 hours  2 minutes 12.3 seconds.
 File lengths (MBytes):  RWF=    259 Int=      0 D2E=      0 Chk=     61 Scr=      1
 Normal termination of Gaussian 09 at Mon Nov  2 13:07:16 2015.
