 Entering GApplication 60298276 resources: utime ~130298s, stime ~2955s, Rss ~7776312, inblocks ~28828391, outblocks ~10032829
eq.com
 Output=/global/homes/p/parksjm/tpss/H2O.Co.2.Corrin.H2O/H2O.Co.2.Corrin.H2O.tpss.631gs.freq.log
 Initial command:
 /usr/common/usg/g09/d1/g09/l1.exe "/scratch/scratchdirs/parksjm/g09/13504659.hopque01/Gau-19642.inp" -scrdir="/scratch/scratchdirs/parksjm/g09/13504659.hopque01/"
 Entering Link 1 = /usr/common/usg/g09/d1/g09/l1.exe PID=     19643.
  
 Copyright (c) 1988,1990,1992,1993,1995,1998,2003,2009,2013,
            Gaussian, Inc.  All Rights Reserved.
  
 This is part of the Gaussian(R) 09 program.  It is based on
 the Gaussian(R) 03 system (copyright 2003, Gaussian, Inc.),
 the Gaussian(R) 98 system (copyright 1998, Gaussian, Inc.),
 the Gaussian(R) 94 system (copyright 1995, Gaussian, Inc.),
 the Gaussian 92(TM) system (copyright 1992, Gaussian, Inc.),
 the Gaussian 90(TM) system (copyright 1990, Gaussian, Inc.),
 the Gaussian 88(TM) system (copyright 1988, Gaussian, Inc.),
 the Gaussian 86(TM) system (copyright 1986, Carnegie Mellon
 University), and the Gaussian 82(TM) system (copyright 1983,
 Carnegie Mellon University). Gaussian is a federally registered
 trademark of Gaussian, Inc.
  
 This software contains proprietary and confidential information,
 including trade secrets, belonging to Gaussian, Inc.
  
 This software is provided under written license and may be
 used, copied, transmitted, or stored only in accord with that
 written license.
  
 The following legend is applicable only to US Government
 contracts under FAR:
  
                    RESTRICTED RIGHTS LEGEND
  
 Use, reproduction and disclosure by the US Government is
 subject to restrictions as set forth in subparagraphs (a)
 and (c) of the Commercial Computer Software - Restricted
 Rights clause in FAR 52.227-19.
  
 Gaussian, Inc.
 340 Quinnipiac St., Bldg. 40, Wallingford CT 06492
  
  
 ---------------------------------------------------------------
 Warning -- This program may not be used in any manner that
 competes with the business of Gaussian, Inc. or will provide
 assistance to any competitor of Gaussian, Inc.  The licensee
 of this program is prohibited from giving any competitor of
 Gaussian, Inc. access to this program.  By using this program,
 the user acknowledges that Gaussian, Inc. is engaged in the
 business of creating and licensing software in the field of
 computational chemistry and represents and warrants to the
 licensee that it is not a competitor of Gaussian, Inc. and that
 it will not use this program in any manner prohibited above.
 ---------------------------------------------------------------
  

 Cite this work as:
 Gaussian 09, Revision D.01,
 M. J. Frisch, G. W. Trucks, H. B. Schlegel, G. E. Scuseria, 
 M. A. Robb, J. R. Cheeseman, G. Scalmani, V. Barone, B. Mennucci, 
 G. A. Petersson, H. Nakatsuji, M. Caricato, X. Li, H. P. Hratchian, 
 A. F. Izmaylov, J. Bloino, G. Zheng, J. L. Sonnenberg, M. Hada, 
 M. Ehara, K. Toyota, R. Fukuda, J. Hasegawa, M. Ishida, T. Nakajima, 
 Y. Honda, O. Kitao, H. Nakai, T. Vreven, J. A. Montgomery, Jr., 
 J. E. Peralta, F. Ogliaro, M. Bearpark, J. J. Heyd, E. Brothers, 
 K. N. Kudin, V. N. Staroverov, T. Keith, R. Kobayashi, J. Normand, 
 K. Raghavachari, A. Rendell, J. C. Burant, S. S. Iyengar, J. Tomasi, 
 M. Cossi, N. Rega, J. M. Millam, M. Klene, J. E. Knox, J. B. Cross, 
 V. Bakken, C. Adamo, J. Jaramillo, R. Gomperts, R. E. Stratmann, 
 O. Yazyev, A. J. Austin, R. Cammi, C. Pomelli, J. W. Ochterski, 
 R. L. Martin, K. Morokuma, V. G. Zakrzewski, G. A. Voth, 
 P. Salvador, J. J. Dannenberg, S. Dapprich, A. D. Daniels, 
 O. Farkas, J. B. Foresman, J. V. Ortiz, J. Cioslowski, 
 and D. J. Fox, Gaussian, Inc., Wallingford CT, 2013.
 
 ******************************************
 Gaussian 09:  AS64L-G09RevD.01 24-Apr-2013
                29-Oct-2015 
 ******************************************
 %nproc=24
 Will use up to   24 processors via shared memory.
 %chk=H2O.Co.2.Corrin.H2O.chk
 %mem=7000mb
 -----------------------------------------------------
 # tpsstpss/6-31G(d) freq integral=ultrafine scf=tight
 -----------------------------------------------------
 1/10=4,30=1,38=1/1,3;
 2/12=2,17=6,18=5,40=1/2;
 3/5=1,6=6,7=1,11=2,16=1,25=1,30=1,71=2,74=2523,75=-5,140=1/1,2,3;
 4//1;
 5/5=2,32=2,38=5,98=1/2;
 8/6=4,10=90,11=11/1;
 11/6=1,8=1,9=11,15=111,16=1/1,2,10;
 10/6=1/2;
 6/7=2,8=2,9=2,10=2,18=1,28=1/1;
 7/8=1,10=1,25=1/1,2,3,16;
 1/10=4,30=1/3;
 99//99;
 -------------------
 H2O.Co.2.Corrin.H2O
 -------------------
 Symbolic Z-matrix:
 Charge =  1 Multiplicity = 2
 O                    -0.18243   0.20627  -2.30662 
 H                     0.06553  -0.60952  -2.7851 
 H                     0.39299   0.90394  -2.67837 
 Co                   -0.03096   0.       0. 
 N                    -1.32619  -1.41521  -0.03582 
 C                    -1.0398   -2.77373   0.03467 
 C                    -2.31134  -3.59303   0.16813 
 C                    -3.42699  -2.55658  -0.0643 
 C                    -2.67909  -1.23864  -0.02766 
 C                     0.2248   -3.32397   0.01598 
 C                     1.40596  -2.54625  -0.09657 
 N                     1.3663   -1.22372  -0.14545 
 C                     2.73042  -0.66653  -0.37212 
 C                     3.67107  -1.80214   0.07294 
 C                     2.82763  -3.07094  -0.21123 
 C                     2.73042   0.66652   0.37213 
 N                     1.3663    1.22371   0.14545 
 C                     1.40597   2.54625   0.09657 
 C                     2.82765   3.07092   0.21124 
 C                     3.67108   1.80212  -0.07294 
 C                    -3.31436   0.00001   0. 
 C                    -2.67908   1.23865   0.02767 
 N                    -1.32619   1.41521   0.03582 
 C                    -1.03979   2.77374  -0.03468 
 C                    -2.31133   3.59303  -0.16815 
 C                    -3.42698   2.55659   0.06432 
 C                     0.22482   3.32397  -0.01599 
 H                     2.8438   -0.46578  -1.45211 
 H                     2.8438    0.46577   1.45211 
 H                    -4.40247   0.00001   0.00001 
 H                     0.31758   4.40535  -0.0836 
 H                     0.31756  -4.40536   0.0836 
 H                     3.8707    1.71841  -1.15087 
 H                     4.63093   1.79498   0.45441 
 H                    -4.22119  -2.59358   0.69104 
 H                     3.02794   3.89531  -0.48416 
 H                    -2.36865   4.02764  -1.17642 
 H                     3.00546   3.4557    1.22811 
 H                    -4.22119   2.5936   -0.69101 
 H                     3.87069  -1.71842   1.15088 
 H                     4.63092  -1.795    -0.4544 
 H                     3.00545  -3.45572  -1.22809 
 H                     3.02792  -3.89533   0.48417 
 H                    -2.33258   4.42617   0.54437 
 H                    -2.3326   -4.42614  -0.54441 
 H                    -3.90761   2.68563   1.04531 
 H                    -2.36867  -4.02766   1.17639 
 H                    -3.90765  -2.6856   -1.04529 
 O                    -0.18245  -0.20626   2.30661 
 H                     0.39297  -0.90393   2.67837 
 H                     0.0655    0.60953   2.78509 
 

 GradGradGradGradGradGradGradGradGradGradGradGradGradGradGradGradGradGrad
 Berny optimization.
 Initialization pass.
 Trust Radius=3.00D-01 FncErr=1.00D-07 GrdErr=1.00D-07
 Number of steps in this run=      2 maximum allowed number of steps=      2.
 GradGradGradGradGradGradGradGradGradGradGradGradGradGradGradGradGradGrad

 Stoichiometry    C19H25CoN4O2(1+,2)
 Framework group  C1[X(C19H25CoN4O2)]
 Deg. of freedom   147
 Full point group                 C1      NOp   1
 Largest Abelian subgroup         C1      NOp   1
 Largest concise Abelian subgroup C1      NOp   1
                         Standard orientation:                         
 ---------------------------------------------------------------------
 Center     Atomic      Atomic             Coordinates (Angstroms)
 Number     Number       Type             X           Y           Z
 ---------------------------------------------------------------------
      1          8           0       -0.182428   -0.206267    2.306619
      2          1           0        0.065529    0.609522    2.785100
      3          1           0        0.392992   -0.903937    2.678368
      4         27           0       -0.030963    0.000000    0.000001
      5          7           0       -1.326193    1.415207    0.035824
      6          6           0       -1.039804    2.773733   -0.034673
      7          6           0       -2.311345    3.593027   -0.168131
      8          6           0       -3.426993    2.556574    0.064304
      9          6           0       -2.679085    1.238635    0.027661
     10          6           0        0.224800    3.323970   -0.015984
     11          6           0        1.405956    2.546253    0.096571
     12          7           0        1.366297    1.223720    0.145445
     13          6           0        2.730415    0.666533    0.372121
     14          6           0        3.671073    1.802139   -0.072943
     15          6           0        2.827633    3.070937    0.211231
     16          6           0        2.730417   -0.666518   -0.372125
     17          7           0        1.366303   -1.223714   -0.145445
     18          6           0        1.405969   -2.546247   -0.096574
     19          6           0        2.827648   -3.070922   -0.211240
     20          6           0        3.671081   -1.802120    0.072935
     21          6           0       -3.314357   -0.000008   -0.000004
     22          6           0       -2.679079   -1.238648   -0.027666
     23          7           0       -1.326186   -1.415212   -0.035822
     24          6           0       -1.039789   -2.773737    0.034680
     25          6           0       -2.311327   -3.593035    0.168149
     26          6           0       -3.426977   -2.556592   -0.064317
     27          6           0        0.224817   -3.323969    0.015986
     28          1           0        2.843799    0.465783    1.452107
     29          1           0        2.843797   -0.465767   -1.452112
     30          1           0       -4.402474   -0.000011   -0.000008
     31          1           0        0.317580   -4.405354    0.083599
     32          1           0        0.317558    4.405356   -0.083595
     33          1           0        3.870695   -1.718407    1.150872
     34          1           0        4.630925   -1.794980   -0.454413
     35          1           0       -4.221191    2.593577   -0.691038
     36          1           0        3.027943   -3.895312    0.484156
     37          1           0       -2.368653   -4.027643    1.176420
     38          1           0        3.005460   -3.455699   -1.228105
     39          1           0       -4.221193   -2.593597    0.691005
     40          1           0        3.870685    1.718424   -1.150880
     41          1           0        4.630918    1.795004    0.454403
     42          1           0        3.005446    3.455719    1.228094
     43          1           0        3.027922    3.895326   -0.484167
     44          1           0       -2.332576   -4.426172   -0.544365
     45          1           0       -2.332601    4.426144    0.544407
     46          1           0       -3.907605   -2.685629   -1.045314
     47          1           0       -2.368667    4.027663   -1.176388
     48          1           0       -3.907648    2.685601    1.045288
     49          8           0       -0.182445    0.206261   -2.306609
     50          1           0        0.392972    0.903928   -2.678370
     51          1           0        0.065503   -0.609532   -2.785088
 ---------------------------------------------------------------------
 Rotational constants (GHZ):      0.2583042      0.2471374      0.1422149
 Standard basis: 6-31G(d) (6D, 7F)
 There are   464 symmetry adapted cartesian basis functions of A   symmetry.
 There are   461 symmetry adapted basis functions of A   symmetry.
   461 basis functions,   904 primitive gaussians,   464 cartesian basis functions
   105 alpha electrons      104 beta electrons
       nuclear repulsion energy      3209.2859904153 Hartrees.
 NAtoms=   51 NActive=   51 NUniq=   51 SFac= 1.00D+00 NAtFMM=   60 NAOKFM=F Big=F
 Integral buffers will be    131072 words long.
 Raffenetti 2 integral format.
 Two-electron integral symmetry is turned on.
 One-electron integrals computed using PRISM.
 NBasis=   461 RedAO= T EigKep=  7.32D-04  NBF=   461
 NBsUse=   461 1.00D-06 EigRej= -1.00D+00 NBFU=   461
 ExpMin= 4.30D-02 ExpMax= 6.61D+04 ExpMxC= 9.93D+03 IAcc=3 IRadAn=         5 AccDes= 0.00D+00
 Harris functional with IExCor= 1009 and IRadAn=       5 diagonalized for initial guess.
 HarFok:  IExCor= 1009 AccDes= 0.00D+00 IRadAn=         5 IDoV= 1 UseB2=F ITyADJ=14
 ICtDFT=  3500011 ScaDFX=  1.000000  1.000000  1.000000  1.000000
 FoFCou: FMM=F IPFlag=           0 FMFlag=      100000 FMFlg1=           0
         NFxFlg=           0 DoJE=T BraDBF=F KetDBF=T FulRan=T
         wScrn=  0.000000 ICntrl=     500 IOpCl=  0 I1Cent=   200000004 NGrid=           0
         NMat0=    1 NMatS0=      1 NMatT0=    0 NMatD0=    1 NMtDS0=    0 NMtDT0=    0
 Petite list used in FoFCou.
 Initial guess <Sx>= 0.0000 <Sy>= 0.0000 <Sz>= 0.5000 <S**2>= 0.7500 S= 0.5000
 Requested convergence on RMS density matrix=1.00D-08 within 128 cycles.
 Requested convergence on MAX density matrix=1.00D-06.
 Requested convergence on             energy=1.00D-06.
 No special actions if energy rises.
 EnCoef did   100 forward-backward iterations
 EnCoef did     2 forward-backward iterations
 EnCoef did     5 forward-backward iterations
 EnCoef did     2 forward-backward iterations
 Restarting incremental Fock formation.
 SCF Done:  E(UTPSS-TPSS) =  -2491.34445600     A.U. after   21 cycles
            NFock= 21  Conv=0.70D-08     -V/T= 2.0048
 <Sx>= 0.0000 <Sy>= 0.0000 <Sz>= 0.5000 <S**2>= 0.7642 S= 0.5071
 <L.S>= 0.000000000000E+00
 Annihilation of the first spin contaminant:
 S**2 before annihilation     0.7642,   after     0.7502
 Range of M.O.s used for correlation:     1   461
 NBasis=   461 NAE=   105 NBE=   104 NFC=     0 NFV=     0
 NROrb=    461 NOA=   105 NOB=   104 NVA=   356 NVB=   357

 **** Warning!!: The largest alpha MO coefficient is  0.20116527D+02


 **** Warning!!: The smallest alpha delta epsilon is  0.74836622D-01


 **** Warning!!: The largest beta MO coefficient is  0.20117626D+02


 **** Warning!!: The smallest beta delta epsilon is  0.64800262D-01

 Symmetrizing basis deriv contribution to polar:
 IMax=3 JMax=2 DiffMx= 0.00D+00
 G2DrvN: will do    26 centers at a time, making    2 passes.
 Calling FoFCou, ICntrl=  3507 FMM=F I1Cent=   0 AccDes= 0.00D+00.
 Calling FoFCou, ICntrl=  3507 FMM=F I1Cent=   0 AccDes= 0.00D+00.
 End of G2Drv F.D. properties file   721 does not exist.
 End of G2Drv F.D. properties file   722 does not exist.
 End of G2Drv F.D. properties file   788 does not exist.
          IDoAtm=11111111111111111111111111111111111111111111111111
          IDoAtm=1
          Differentiating once with respect to electric field.
                with respect to dipole field.
          Differentiating once with respect to nuclear coordinates.
          There are   156 degrees of freedom in the 1st order CPHF.  IDoFFX=6 NUNeed=     3.
    156 vectors produced by pass  0 Test12= 7.45D-14 1.00D-09 XBig12= 2.46D+03 2.27D+01.
 AX will form   156 AO Fock derivatives at one time.
    156 vectors produced by pass  1 Test12= 7.45D-14 1.00D-09 XBig12= 1.75D+03 7.18D+00.
    153 vectors produced by pass  2 Test12= 7.45D-14 1.00D-09 XBig12= 5.67D+00 3.42D-01.
    153 vectors produced by pass  3 Test12= 7.45D-14 1.00D-09 XBig12= 3.09D-02 2.52D-02.
    153 vectors produced by pass  4 Test12= 7.45D-14 1.00D-09 XBig12= 4.52D-05 3.62D-04.
    130 vectors produced by pass  5 Test12= 7.45D-14 1.00D-09 XBig12= 6.21D-08 1.38D-05.
     42 vectors produced by pass  6 Test12= 7.45D-14 1.00D-09 XBig12= 1.31D-10 5.30D-07.
      3 vectors produced by pass  7 Test12= 7.45D-14 1.00D-09 XBig12= 3.67D-13 2.80D-08.
      2 vectors produced by pass  8 Test12= 7.45D-14 1.00D-09 XBig12= 1.19D-15 1.45D-09.
 InvSVY:  IOpt=1 It=  1 EMax= 2.13D-14
 Solved reduced A of dimension   948 with   156 vectors.
 Isotropic polarizability for W=    0.000000      287.79 Bohr**3.
 End of Minotr F.D. properties file   721 does not exist.
 End of Minotr F.D. properties file   722 does not exist.
 End of Minotr F.D. properties file   788 does not exist.

 **********************************************************************

            Population analysis using the SCF density.

 **********************************************************************

 Orbital symmetries:
 Alpha Orbitals:
       Occupied  (A) (A) (A) (A) (A) (A) (A) (A) (A) (A) (A) (A)
                 (A) (A) (A) (A) (A) (A) (A) (A) (A) (A) (A) (A)
                 (A) (A) (A) (A) (A) (A) (A) (A) (A) (A) (A) (A)
                 (A) (A) (A) (A) (A) (A) (A) (A) (A) (A) (A) (A)
                 (A) (A) (A) (A) (A) (A) (A) (A) (A) (A) (A) (A)
                 (A) (A) (A) (A) (A) (A) (A) (A) (A) (A) (A) (A)
                 (A) (A) (A) (A) (A) (A) (A) (A) (A) (A) (A) (A)
                 (A) (A) (A) (A) (A) (A) (A) (A) (A) (A) (A) (A)
                 (A) (A) (A) (A) (A) (A) (A) (A) (A)
       Virtual   (A) (A) (A) (A) (A) (A) (A) (A) (A) (A) (A) (A)
                 (A) (A) (A) (A) (A) (A) (A) (A) (A) (A) (A) (A)
                 (A) (A) (A) (A) (A) (A) (A) (A) (A) (A) (A) (A)
                 (A) (A) (A) (A) (A) (A) (A) (A) (A) (A) (A) (A)
                 (A) (A) (A) (A) (A) (A) (A) (A) (A) (A) (A) (A)
                 (A) (A) (A) (A) (A) (A) (A) (A) (A) (A) (A) (A)
                 (A) (A) (A) (A) (A) (A) (A) (A) (A) (A) (A) (A)
                 (A) (A) (A) (A) (A) (A) (A) (A) (A) (A) (A) (A)
                 (A) (A) (A) (A) (A) (A) (A) (A) (A) (A) (A) (A)
                 (A) (A) (A) (A) (A) (A) (A) (A) (A) (A) (A) (A)
                 (A) (A) (A) (A) (A) (A) (A) (A) (A) (A) (A) (A)
                 (A) (A) (A) (A) (A) (A) (A) (A) (A) (A) (A) (A)
                 (A) (A) (A) (A) (A) (A) (A) (A) (A) (A) (A) (A)
                 (A) (A) (A) (A) (A) (A) (A) (A) (A) (A) (A) (A)
                 (A) (A) (A) (A) (A) (A) (A) (A) (A) (A) (A) (A)
                 (A) (A) (A) (A) (A) (A) (A) (A) (A) (A) (A) (A)
                 (A) (A) (A) (A) (A) (A) (A) (A) (A) (A) (A) (A)
                 (A) (A) (A) (A) (A) (A) (A) (A) (A) (A) (A) (A)
                 (A) (A) (A) (A) (A) (A) (A) (A) (A) (A) (A) (A)
                 (A) (A) (A) (A) (A) (A) (A) (A) (A) (A) (A) (A)
                 (A) (A) (A) (A) (A) (A) (A) (A) (A) (A) (A) (A)
                 (A) (A) (A) (A) (A) (A) (A) (A) (A) (A) (A) (A)
                 (A) (A) (A) (A) (A) (A) (A) (A) (A) (A) (A) (A)
                 (A) (A) (A) (A) (A) (A) (A) (A) (A) (A) (A) (A)
                 (A) (A) (A) (A) (A) (A) (A) (A) (A) (A) (A) (A)
                 (A) (A) (A) (A) (A) (A) (A) (A) (A) (A) (A) (A)
                 (A) (A) (A) (A) (A) (A) (A) (A) (A) (A) (A) (A)
                 (A) (A) (A) (A) (A) (A) (A) (A) (A) (A) (A) (A)
                 (A) (A) (A) (A) (A) (A) (A) (A) (A) (A) (A) (A)
                 (A) (A) (A) (A) (A) (A) (A) (A)
 Beta  Orbitals:
       Occupied  (A) (A) (A) (A) (A) (A) (A) (A) (A) (A) (A) (A)
                 (A) (A) (A) (A) (A) (A) (A) (A) (A) (A) (A) (A)
                 (A) (A) (A) (A) (A) (A) (A) (A) (A) (A) (A) (A)
                 (A) (A) (A) (A) (A) (A) (A) (A) (A) (A) (A) (A)
                 (A) (A) (A) (A) (A) (A) (A) (A) (A) (A) (A) (A)
                 (A) (A) (A) (A) (A) (A) (A) (A) (A) (A) (A) (A)
                 (A) (A) (A) (A) (A) (A) (A) (A) (A) (A) (A) (A)
                 (A) (A) (A) (A) (A) (A) (A) (A) (A) (A) (A) (A)
                 (A) (A) (A) (A) (A) (A) (A) (A)
       Virtual   (A) (A) (A) (A) (A) (A) (A) (A) (A) (A) (A) (A)
                 (A) (A) (A) (A) (A) (A) (A) (A) (A) (A) (A) (A)
                 (A) (A) (A) (A) (A) (A) (A) (A) (A) (A) (A) (A)
                 (A) (A) (A) (A) (A) (A) (A) (A) (A) (A) (A) (A)
                 (A) (A) (A) (A) (A) (A) (A) (A) (A) (A) (A) (A)
                 (A) (A) (A) (A) (A) (A) (A) (A) (A) (A) (A) (A)
                 (A) (A) (A) (A) (A) (A) (A) (A) (A) (A) (A) (A)
                 (A) (A) (A) (A) (A) (A) (A) (A) (A) (A) (A) (A)
                 (A) (A) (A) (A) (A) (A) (A) (A) (A) (A) (A) (A)
                 (A) (A) (A) (A) (A) (A) (A) (A) (A) (A) (A) (A)
                 (A) (A) (A) (A) (A) (A) (A) (A) (A) (A) (A) (A)
                 (A) (A) (A) (A) (A) (A) (A) (A) (A) (A) (A) (A)
                 (A) (A) (A) (A) (A) (A) (A) (A) (A) (A) (A) (A)
                 (A) (A) (A) (A) (A) (A) (A) (A) (A) (A) (A) (A)
                 (A) (A) (A) (A) (A) (A) (A) (A) (A) (A) (A) (A)
                 (A) (A) (A) (A) (A) (A) (A) (A) (A) (A) (A) (A)
                 (A) (A) (A) (A) (A) (A) (A) (A) (A) (A) (A) (A)
                 (A) (A) (A) (A) (A) (A) (A) (A) (A) (A) (A) (A)
                 (A) (A) (A) (A) (A) (A) (A) (A) (A) (A) (A) (A)
                 (A) (A) (A) (A) (A) (A) (A) (A) (A) (A) (A) (A)
                 (A) (A) (A) (A) (A) (A) (A) (A) (A) (A) (A) (A)
                 (A) (A) (A) (A) (A) (A) (A) (A) (A) (A) (A) (A)
                 (A) (A) (A) (A) (A) (A) (A) (A) (A) (A) (A) (A)
                 (A) (A) (A) (A) (A) (A) (A) (A) (A) (A) (A) (A)
                 (A) (A) (A) (A) (A) (A) (A) (A) (A) (A) (A) (A)
                 (A) (A) (A) (A) (A) (A) (A) (A) (A) (A) (A) (A)
                 (A) (A) (A) (A) (A) (A) (A) (A) (A) (A) (A) (A)
                 (A) (A) (A) (A) (A) (A) (A) (A) (A) (A) (A) (A)
                 (A) (A) (A) (A) (A) (A) (A) (A) (A) (A) (A) (A)
                 (A) (A) (A) (A) (A) (A) (A) (A) (A)
 The electronic state is 2-A.
 Alpha  occ. eigenvalues -- -276.77151 -32.59281 -28.25402 -28.25340 -28.24912
 Alpha  occ. eigenvalues --  -19.04524 -19.04524 -14.24587 -14.24586 -14.24027
 Alpha  occ. eigenvalues --  -14.24027 -10.14841 -10.14841 -10.14723 -10.14723
 Alpha  occ. eigenvalues --  -10.14511 -10.14499 -10.14417 -10.14416 -10.11507
 Alpha  occ. eigenvalues --  -10.11507 -10.11229 -10.11229 -10.10895 -10.10895
 Alpha  occ. eigenvalues --  -10.10786 -10.10786 -10.09808 -10.09808 -10.09367
 Alpha  occ. eigenvalues --   -3.70856  -2.41030  -2.40860  -2.40822  -1.07120
 Alpha  occ. eigenvalues --   -1.07076  -1.00433  -0.99118  -0.98868  -0.97260
 Alpha  occ. eigenvalues --   -0.85720  -0.82568  -0.82471  -0.81987  -0.81485
 Alpha  occ. eigenvalues --   -0.81461  -0.80770  -0.76243  -0.75547  -0.70105
 Alpha  occ. eigenvalues --   -0.68909  -0.67246  -0.64614  -0.64424  -0.63659
 Alpha  occ. eigenvalues --   -0.61199  -0.60859  -0.60795  -0.60742  -0.59074
 Alpha  occ. eigenvalues --   -0.57003  -0.56205  -0.55947  -0.55086  -0.54300
 Alpha  occ. eigenvalues --   -0.53501  -0.52875  -0.52314  -0.51593  -0.49575
 Alpha  occ. eigenvalues --   -0.48783  -0.48386  -0.48074  -0.47373  -0.46459
 Alpha  occ. eigenvalues --   -0.46174  -0.45682  -0.45129  -0.44499  -0.44471
 Alpha  occ. eigenvalues --   -0.44311  -0.44258  -0.43966  -0.43609  -0.43378
 Alpha  occ. eigenvalues --   -0.42974  -0.42239  -0.41923  -0.41456  -0.41109
 Alpha  occ. eigenvalues --   -0.40413  -0.40175  -0.40080  -0.39652  -0.38545
 Alpha  occ. eigenvalues --   -0.37733  -0.37648  -0.36999  -0.33741  -0.31803
 Alpha  occ. eigenvalues --   -0.29888  -0.28277  -0.27583  -0.26752  -0.26511
 Alpha virt. eigenvalues --   -0.19027  -0.16441  -0.15698  -0.13349  -0.09625
 Alpha virt. eigenvalues --   -0.09168  -0.06329  -0.05313  -0.05255  -0.04966
 Alpha virt. eigenvalues --   -0.03637  -0.02533  -0.01477  -0.01351  -0.00596
 Alpha virt. eigenvalues --    0.00272   0.00739   0.01191   0.01718   0.01948
 Alpha virt. eigenvalues --    0.02657   0.03035   0.03791   0.04267   0.04641
 Alpha virt. eigenvalues --    0.04835   0.04857   0.05559   0.06093   0.06125
 Alpha virt. eigenvalues --    0.06377   0.06708   0.07178   0.07747   0.07820
 Alpha virt. eigenvalues --    0.08357   0.09319   0.09498   0.09807   0.10153
 Alpha virt. eigenvalues --    0.11693   0.11696   0.11961   0.12164   0.12500
 Alpha virt. eigenvalues --    0.13174   0.13823   0.15022   0.16420   0.16673
 Alpha virt. eigenvalues --    0.16863   0.18284   0.19299   0.20269   0.22080
 Alpha virt. eigenvalues --    0.22977   0.24330   0.25593   0.26242   0.28697
 Alpha virt. eigenvalues --    0.30230   0.30577   0.31215   0.33635   0.33835
 Alpha virt. eigenvalues --    0.37913   0.38334   0.38612   0.39878   0.39889
 Alpha virt. eigenvalues --    0.40358   0.40740   0.41745   0.42796   0.43504
 Alpha virt. eigenvalues --    0.43819   0.44370   0.44440   0.45375   0.45394
 Alpha virt. eigenvalues --    0.45647   0.45865   0.46948   0.47865   0.48372
 Alpha virt. eigenvalues --    0.48576   0.49293   0.50191   0.50463   0.51250
 Alpha virt. eigenvalues --    0.51665   0.51900   0.52904   0.53591   0.53992
 Alpha virt. eigenvalues --    0.55379   0.55890   0.56971   0.59197   0.59818
 Alpha virt. eigenvalues --    0.60021   0.61204   0.61702   0.62514   0.63090
 Alpha virt. eigenvalues --    0.63617   0.65636   0.65763   0.66893   0.67510
 Alpha virt. eigenvalues --    0.68104   0.68855   0.69786   0.69935   0.71256
 Alpha virt. eigenvalues --    0.71472   0.72541   0.72845   0.73137   0.73258
 Alpha virt. eigenvalues --    0.73639   0.73925   0.74218   0.74264   0.74688
 Alpha virt. eigenvalues --    0.75911   0.76090   0.76505   0.77354   0.77895
 Alpha virt. eigenvalues --    0.78066   0.78473   0.79345   0.79422   0.80502
 Alpha virt. eigenvalues --    0.80683   0.80748   0.81998   0.82986   0.83203
 Alpha virt. eigenvalues --    0.83532   0.83667   0.83881   0.84276   0.84983
 Alpha virt. eigenvalues --    0.86088   0.86537   0.88422   0.89325   0.89476
 Alpha virt. eigenvalues --    0.92024   0.95005   0.95849   0.96038   0.96292
 Alpha virt. eigenvalues --    0.96788   0.97586   1.00313   1.01330   1.02146
 Alpha virt. eigenvalues --    1.02603   1.03824   1.04297   1.05860   1.07171
 Alpha virt. eigenvalues --    1.08488   1.09127   1.09683   1.12409   1.14427
 Alpha virt. eigenvalues --    1.14480   1.14748   1.14821   1.16702   1.17133
 Alpha virt. eigenvalues --    1.17915   1.22579   1.24385   1.24710   1.25855
 Alpha virt. eigenvalues --    1.26357   1.26437   1.27826   1.28337   1.30625
 Alpha virt. eigenvalues --    1.30941   1.31095   1.34073   1.35603   1.38157
 Alpha virt. eigenvalues --    1.39720   1.41124   1.42415   1.43682   1.45104
 Alpha virt. eigenvalues --    1.46804   1.48806   1.49946   1.50481   1.53129
 Alpha virt. eigenvalues --    1.53813   1.54658   1.55027   1.57145   1.57288
 Alpha virt. eigenvalues --    1.58256   1.59973   1.60724   1.60888   1.61691
 Alpha virt. eigenvalues --    1.63078   1.64147   1.64983   1.66097   1.66356
 Alpha virt. eigenvalues --    1.66548   1.67589   1.67943   1.68057   1.68883
 Alpha virt. eigenvalues --    1.68922   1.70326   1.70606   1.71216   1.72679
 Alpha virt. eigenvalues --    1.73724   1.76799   1.76863   1.77900   1.79088
 Alpha virt. eigenvalues --    1.79666   1.80329   1.80488   1.81953   1.82625
 Alpha virt. eigenvalues --    1.84189   1.84432   1.85518   1.85602   1.87524
 Alpha virt. eigenvalues --    1.88319   1.88981   1.89616   1.90383   1.93156
 Alpha virt. eigenvalues --    1.93855   1.94713   1.95766   1.96159   1.96586
 Alpha virt. eigenvalues --    1.99870   2.01851   2.02140   2.02677   2.04416
 Alpha virt. eigenvalues --    2.05485   2.06241   2.07145   2.07942   2.09088
 Alpha virt. eigenvalues --    2.09195   2.10013   2.10812   2.10902   2.11676
 Alpha virt. eigenvalues --    2.13115   2.13530   2.13973   2.14333   2.15380
 Alpha virt. eigenvalues --    2.15948   2.16928   2.17471   2.18947   2.19051
 Alpha virt. eigenvalues --    2.19993   2.22160   2.22751   2.26454   2.26612
 Alpha virt. eigenvalues --    2.30204   2.30430   2.31912   2.34149   2.34642
 Alpha virt. eigenvalues --    2.35187   2.36653   2.37363   2.37763   2.38438
 Alpha virt. eigenvalues --    2.39298   2.39317   2.41033   2.41240   2.44172
 Alpha virt. eigenvalues --    2.44363   2.45974   2.47214   2.48771   2.49063
 Alpha virt. eigenvalues --    2.50371   2.52231   2.52548   2.53609   2.55092
 Alpha virt. eigenvalues --    2.55889   2.59543   2.60068   2.60802   2.61770
 Alpha virt. eigenvalues --    2.62994   2.65125   2.67395   2.68667   2.70820
 Alpha virt. eigenvalues --    2.71572   2.73210   2.73959   2.76341   2.81010
 Alpha virt. eigenvalues --    2.84779   2.90306   2.94822   2.94863   3.01650
 Alpha virt. eigenvalues --    3.08244   3.08859   3.21270   3.24956   3.29587
 Alpha virt. eigenvalues --    3.62752   3.70357   3.96062   4.01514   4.02489
 Alpha virt. eigenvalues --    4.05092   4.05455   4.06945   4.07150   4.07252
 Alpha virt. eigenvalues --    4.11745   4.15884   4.19320   4.20634   4.21230
 Alpha virt. eigenvalues --    4.23499   4.26781   4.34537   4.43074   4.44842
 Alpha virt. eigenvalues --    4.49919   4.53596   4.53914   4.60264   4.61439
 Alpha virt. eigenvalues --   26.17113
  Beta  occ. eigenvalues -- -276.77127 -32.57489 -28.24351 -28.24344 -28.22614
  Beta  occ. eigenvalues --  -19.04374 -19.04374 -14.24596 -14.24596 -14.24041
  Beta  occ. eigenvalues --  -14.24041 -10.14871 -10.14870 -10.14749 -10.14749
  Beta  occ. eigenvalues --  -10.14514 -10.14502 -10.14461 -10.14460 -10.11507
  Beta  occ. eigenvalues --  -10.11507 -10.11229 -10.11229 -10.10895 -10.10895
  Beta  occ. eigenvalues --  -10.10785 -10.10785 -10.09795 -10.09795 -10.09355
  Beta  occ. eigenvalues --   -3.66358  -2.37630  -2.37551  -2.34039  -1.06902
  Beta  occ. eigenvalues --   -1.06861  -1.00449  -0.99145  -0.98896  -0.97281
  Beta  occ. eigenvalues --   -0.85746  -0.82587  -0.82490  -0.81996  -0.81494
  Beta  occ. eigenvalues --   -0.81468  -0.80776  -0.76241  -0.75587  -0.70116
  Beta  occ. eigenvalues --   -0.68918  -0.67250  -0.64628  -0.64446  -0.63679
  Beta  occ. eigenvalues --   -0.61211  -0.60755  -0.60702  -0.60693  -0.59050
  Beta  occ. eigenvalues --   -0.57010  -0.56239  -0.55969  -0.54999  -0.54318
  Beta  occ. eigenvalues --   -0.53526  -0.52904  -0.52319  -0.51597  -0.49579
  Beta  occ. eigenvalues --   -0.48490  -0.48127  -0.47886  -0.47368  -0.46449
  Beta  occ. eigenvalues --   -0.46184  -0.45678  -0.45104  -0.44521  -0.44472
  Beta  occ. eigenvalues --   -0.44335  -0.44020  -0.43730  -0.43348  -0.43337
  Beta  occ. eigenvalues --   -0.42856  -0.42163  -0.41936  -0.41435  -0.41131
  Beta  occ. eigenvalues --   -0.40387  -0.39951  -0.39343  -0.39300  -0.38553
  Beta  occ. eigenvalues --   -0.37608  -0.37587  -0.37025  -0.33688  -0.31326
  Beta  occ. eigenvalues --   -0.28218  -0.27476  -0.26293  -0.25472
  Beta virt. eigenvalues --   -0.18992  -0.17725  -0.15878  -0.13466  -0.13440
  Beta virt. eigenvalues --   -0.09568  -0.08805  -0.06357  -0.05333  -0.05297
  Beta virt. eigenvalues --   -0.04978  -0.03639  -0.02512  -0.01449  -0.01342
  Beta virt. eigenvalues --   -0.00587   0.00298   0.00816   0.01196   0.01731
  Beta virt. eigenvalues --    0.01947   0.02656   0.03021   0.03790   0.04257
  Beta virt. eigenvalues --    0.04633   0.04835   0.04851   0.05539   0.06092
  Beta virt. eigenvalues --    0.06114   0.06388   0.06689   0.07181   0.07782
  Beta virt. eigenvalues --    0.07834   0.08353   0.09328   0.09520   0.09778
  Beta virt. eigenvalues --    0.10136   0.11703   0.11714   0.11968   0.12296
  Beta virt. eigenvalues --    0.12505   0.13189   0.13887   0.15100   0.16405
  Beta virt. eigenvalues --    0.16822   0.16899   0.18261   0.19725   0.20261
  Beta virt. eigenvalues --    0.22254   0.23807   0.24440   0.25869   0.26692
  Beta virt. eigenvalues --    0.28770   0.30258   0.30736   0.31228   0.33624
  Beta virt. eigenvalues --    0.33823   0.37902   0.38389   0.38636   0.39850
  Beta virt. eigenvalues --    0.39891   0.40402   0.40739   0.41721   0.42807
  Beta virt. eigenvalues --    0.43507   0.43791   0.44396   0.44454   0.45372
  Beta virt. eigenvalues --    0.45384   0.45690   0.45876   0.46947   0.47920
  Beta virt. eigenvalues --    0.48379   0.48591   0.49292   0.50209   0.50477
  Beta virt. eigenvalues --    0.51246   0.51670   0.51913   0.52921   0.53622
  Beta virt. eigenvalues --    0.54011   0.55375   0.55874   0.56945   0.59126
  Beta virt. eigenvalues --    0.59805   0.59924   0.61273   0.61664   0.62531
  Beta virt. eigenvalues --    0.63183   0.63662   0.65640   0.65791   0.66901
  Beta virt. eigenvalues --    0.67488   0.68136   0.68889   0.69811   0.69979
  Beta virt. eigenvalues --    0.71262   0.71489   0.72543   0.72829   0.73143
  Beta virt. eigenvalues --    0.73266   0.73646   0.73924   0.74250   0.74315
  Beta virt. eigenvalues --    0.74710   0.75934   0.76198   0.76600   0.77419
  Beta virt. eigenvalues --    0.77970   0.78101   0.78465   0.79429   0.79440
  Beta virt. eigenvalues --    0.80490   0.80759   0.80805   0.82007   0.83019
  Beta virt. eigenvalues --    0.83197   0.83526   0.83662   0.83915   0.84347
  Beta virt. eigenvalues --    0.84968   0.86044   0.86534   0.88667   0.89419
  Beta virt. eigenvalues --    0.89575   0.92293   0.95025   0.95965   0.96041
  Beta virt. eigenvalues --    0.96301   0.96894   0.97936   1.00382   1.01378
  Beta virt. eigenvalues --    1.02186   1.02671   1.03883   1.04319   1.05940
  Beta virt. eigenvalues --    1.07216   1.08492   1.09181   1.09780   1.12469
  Beta virt. eigenvalues --    1.14490   1.14539   1.14858   1.14992   1.16754
  Beta virt. eigenvalues --    1.17173   1.17959   1.22633   1.24481   1.24860
  Beta virt. eigenvalues --    1.25916   1.26413   1.26452   1.28103   1.28352
  Beta virt. eigenvalues --    1.30772   1.31039   1.31242   1.34277   1.35620
  Beta virt. eigenvalues --    1.38167   1.39808   1.41196   1.42538   1.43837
  Beta virt. eigenvalues --    1.46164   1.47239   1.49096   1.49988   1.50522
  Beta virt. eigenvalues --    1.53211   1.54214   1.54856   1.55122   1.57255
  Beta virt. eigenvalues --    1.57506   1.58341   1.59971   1.60743   1.60862
  Beta virt. eigenvalues --    1.61745   1.63230   1.64147   1.65071   1.66083
  Beta virt. eigenvalues --    1.66383   1.66601   1.67620   1.67918   1.68061
  Beta virt. eigenvalues --    1.68960   1.69118   1.70377   1.70791   1.71384
  Beta virt. eigenvalues --    1.72778   1.73857   1.76927   1.76936   1.78268
  Beta virt. eigenvalues --    1.79452   1.79949   1.80354   1.80778   1.81969
  Beta virt. eigenvalues --    1.82637   1.84253   1.84468   1.85559   1.85659
  Beta virt. eigenvalues --    1.87525   1.88317   1.89056   1.89713   1.90561
  Beta virt. eigenvalues --    1.93269   1.94066   1.94762   1.95769   1.96615
  Beta virt. eigenvalues --    1.96712   2.00215   2.01991   2.02422   2.03120
  Beta virt. eigenvalues --    2.04509   2.05582   2.06502   2.07123   2.08292
  Beta virt. eigenvalues --    2.09361   2.09536   2.10242   2.10999   2.11138
  Beta virt. eigenvalues --    2.11891   2.13169   2.13570   2.14176   2.14509
  Beta virt. eigenvalues --    2.15476   2.16137   2.17384   2.17509   2.19121
  Beta virt. eigenvalues --    2.19421   2.20493   2.22143   2.23001   2.26624
  Beta virt. eigenvalues --    2.26697   2.30470   2.30503   2.32105   2.34284
  Beta virt. eigenvalues --    2.34666   2.35846   2.36916   2.37468   2.37789
  Beta virt. eigenvalues --    2.39090   2.39430   2.39472   2.41126   2.41562
  Beta virt. eigenvalues --    2.44559   2.44686   2.46447   2.47462   2.48748
  Beta virt. eigenvalues --    2.49565   2.50451   2.52597   2.53602   2.54104
  Beta virt. eigenvalues --    2.55902   2.57324   2.59972   2.60157   2.60937
  Beta virt. eigenvalues --    2.61987   2.63115   2.65314   2.67594   2.68724
  Beta virt. eigenvalues --    2.70989   2.71671   2.73289   2.74083   2.76389
  Beta virt. eigenvalues --    2.81339   2.84858   2.91786   2.94870   2.94913
  Beta virt. eigenvalues --    3.02354   3.08669   3.09639   3.21583   3.25263
  Beta virt. eigenvalues --    3.30093   3.63163   3.70658   3.96123   4.01509
  Beta virt. eigenvalues --    4.02452   4.05076   4.05458   4.06903   4.07121
  Beta virt. eigenvalues --    4.07232   4.11721   4.15873   4.19319   4.20626
  Beta virt. eigenvalues --    4.21210   4.23482   4.26809   4.34478   4.43072
  Beta virt. eigenvalues --    4.44805   4.49923   4.53562   4.53874   4.60237
  Beta virt. eigenvalues --    4.61445  26.20704
          Condensed to atoms (all electrons):
          Atomic-Atomic Spin Densities.
 Mulliken charges and spin densities:
               1          2
     1  O   -0.715463   0.030709
     2  H    0.430721   0.004129
     3  H    0.428761   0.004056
     4  Co   1.001118   1.076376
     5  N   -0.667797  -0.010566
     6  C    0.347689  -0.016048
     7  C   -0.378181   0.000645
     8  C   -0.379870   0.001493
     9  C    0.381003  -0.027844
    10  C   -0.314176   0.009398
    11  C    0.349371  -0.018701
    12  N   -0.609097  -0.013674
    13  C    0.014585  -0.002246
    14  C   -0.328175  -0.000086
    15  C   -0.375404   0.000396
    16  C    0.014586  -0.002246
    17  N   -0.609097  -0.013674
    18  C    0.349370  -0.018701
    19  C   -0.375404   0.000396
    20  C   -0.328175  -0.000086
    21  C   -0.306287   0.009803
    22  C    0.381001  -0.027844
    23  N   -0.667800  -0.010566
    24  C    0.347688  -0.016048
    25  C   -0.378181   0.000645
    26  C   -0.379869   0.001493
    27  C   -0.314176   0.009398
    28  H    0.167429   0.000680
    29  H    0.167430   0.000680
    30  H    0.168178  -0.000223
    31  H    0.169413  -0.000309
    32  H    0.169413  -0.000309
    33  H    0.172317   0.000031
    34  H    0.184921  -0.000056
    35  H    0.198278  -0.000820
    36  H    0.194448  -0.000459
    37  H    0.203334  -0.000806
    38  H    0.194397  -0.001026
    39  H    0.198278  -0.000820
    40  H    0.172317   0.000031
    41  H    0.184921  -0.000056
    42  H    0.194396  -0.001026
    43  H    0.194448  -0.000459
    44  H    0.197144  -0.000385
    45  H    0.197144  -0.000385
    46  H    0.202850  -0.001487
    47  H    0.203333  -0.000806
    48  H    0.202850  -0.001487
    49  O   -0.715463   0.030709
    50  H    0.428761   0.004056
    51  H    0.430722   0.004129
 Sum of Mulliken charges =   1.00000   1.00000
 Mulliken charges and spin densities with hydrogens summed into heavy atoms:
               1          2
     1  O    0.144018   0.038893
     4  Co   1.001118   1.076376
     5  N   -0.667797  -0.010566
     6  C    0.347689  -0.016048
     7  C    0.022297  -0.000546
     8  C    0.021259  -0.000814
     9  C    0.381003  -0.027844
    10  C   -0.144763   0.009089
    11  C    0.349371  -0.018701
    12  N   -0.609097  -0.013674
    13  C    0.182015  -0.001566
    14  C    0.029064  -0.000111
    15  C    0.013440  -0.001090
    16  C    0.182015  -0.001566
    17  N   -0.609097  -0.013674
    18  C    0.349370  -0.018701
    19  C    0.013440  -0.001090
    20  C    0.029064  -0.000111
    21  C   -0.138109   0.009579
    22  C    0.381001  -0.027844
    23  N   -0.667800  -0.010566
    24  C    0.347688  -0.016048
    25  C    0.022296  -0.000546
    26  C    0.021259  -0.000814
    27  C   -0.144763   0.009089
    49  O    0.144019   0.038894
 APT charges:
               1
     1  O   -0.366692
     2  H    0.209030
     3  H    0.208551
     4  Co   0.343993
     5  N   -0.503867
     6  C    0.561431
     7  C    0.025089
     8  C    0.026879
     9  C    0.505930
    10  C   -0.384277
    11  C    0.236961
    12  N   -0.221530
    13  C    0.276193
    14  C    0.079669
    15  C    0.071092
    16  C    0.276192
    17  N   -0.221529
    18  C    0.236957
    19  C    0.071091
    20  C    0.079669
    21  C   -0.463494
    22  C    0.505926
    23  N   -0.503866
    24  C    0.561427
    25  C    0.025091
    26  C    0.026880
    27  C   -0.384277
    28  H   -0.091813
    29  H   -0.091813
    30  H    0.031352
    31  H    0.034928
    32  H    0.034927
    33  H   -0.021223
    34  H   -0.014278
    35  H   -0.005875
    36  H   -0.009328
    37  H   -0.015461
    38  H   -0.029226
    39  H   -0.005873
    40  H   -0.021224
    41  H   -0.014278
    42  H   -0.029226
    43  H   -0.009327
    44  H   -0.007864
    45  H   -0.007865
    46  H   -0.020244
    47  H   -0.015460
    48  H   -0.020243
    49  O   -0.366690
    50  H    0.208551
    51  H    0.209028
 Sum of APT charges =   1.00000
 APT charges with hydrogens summed into heavy atoms:
               1
     1  O    0.050889
     4  Co   0.343993
     5  N   -0.503867
     6  C    0.561431
     7  C    0.001765
     8  C    0.000761
     9  C    0.505930
    10  C   -0.349350
    11  C    0.236961
    12  N   -0.221530
    13  C    0.184379
    14  C    0.044167
    15  C    0.032538
    16  C    0.184379
    17  N   -0.221529
    18  C    0.236957
    19  C    0.032538
    20  C    0.044168
    21  C   -0.432141
    22  C    0.505926
    23  N   -0.503866
    24  C    0.561427
    25  C    0.001766
    26  C    0.000763
    27  C   -0.349349
    49  O    0.050890
 Electronic spatial extent (au):  <R**2>=           7879.7998
 Charge=              1.0000 electrons
 Dipole moment (field-independent basis, Debye):
    X=              1.8573    Y=              0.0000    Z=              0.0000  Tot=              1.8573
 Quadrupole moment (field-independent basis, Debye-Ang):
   XX=           -112.9776   YY=           -113.0926   ZZ=           -136.2038
   XY=              0.0000   XZ=              0.0001   YZ=              0.3958
 Traceless Quadrupole moment (field-independent basis, Debye-Ang):
   XX=              7.7804   YY=              7.6654   ZZ=            -15.4458
   XY=              0.0000   XZ=              0.0001   YZ=              0.3958
 Octapole moment (field-independent basis, Debye-Ang**2):
  XXX=            -15.2111  YYY=              0.0000  ZZZ=             -0.0001  XYY=            -16.9769
  XXY=              0.0002  XXZ=              0.0000  XZZ=             23.5557  YZZ=              0.0000
  YYZ=              0.0001  XYZ=              0.3116
 Hexadecapole moment (field-independent basis, Debye-Ang**3):
 XXXX=          -4464.9525 YYYY=          -4182.8920 ZZZZ=           -459.7588 XXXY=             -0.0009
 XXXZ=             -0.0001 YYYX=              0.0004 YYYZ=            -19.8728 ZZZX=              0.0013
 ZZZY=              1.0585 XXYY=          -1349.2763 XXZZ=           -928.5984 YYZZ=           -868.7160
 XXYZ=              7.9402 YYXZ=              0.0000 ZZXY=             -0.0001
 N-N= 3.209285990415D+03 E-N=-1.226851035410D+04  KE= 2.479540937716D+03
  Exact polarizability: 351.499   0.000 359.605   0.000   0.588 152.262
 Approx polarizability: 755.006   0.000 780.962   0.000   1.185 272.391
                          Isotropic Fermi Contact Couplings
        Atom                 a.u.       MegaHertz       Gauss      10(-4) cm-1
     1  O(17)              0.09448     -57.27127     -20.43581     -19.10364
     2  H(1)               0.00023       1.03053       0.36772       0.34375
     3  H(1)               0.00019       0.85076       0.30357       0.28378
     4  Co(59)             0.26946     285.06935     101.71983      95.08890
     5  N(14)             -0.00714      -2.30603      -0.82285      -0.76921
     6  C(13)             -0.00221      -2.48108      -0.88531      -0.82760
     7  C(13)              0.00017       0.18877       0.06736       0.06297
     8  C(13)              0.00045       0.50383       0.17978       0.16806
     9  C(13)             -0.00367      -4.12028      -1.47022      -1.37438
    10  C(13)              0.00205       2.30243       0.82157       0.76801
    11  C(13)             -0.00233      -2.62224      -0.93568      -0.87469
    12  N(14)             -0.00928      -2.99774      -1.06967      -0.99994
    13  C(13)              0.00020       0.22054       0.07869       0.07356
    14  C(13)              0.00000       0.00489       0.00174       0.00163
    15  C(13)              0.00001       0.00607       0.00216       0.00202
    16  C(13)              0.00020       0.22055       0.07870       0.07357
    17  N(14)             -0.00928      -2.99773      -1.06966      -0.99993
    18  C(13)             -0.00233      -2.62222      -0.93567      -0.87468
    19  C(13)              0.00001       0.00607       0.00216       0.00202
    20  C(13)              0.00000       0.00489       0.00174       0.00163
    21  C(13)              0.00242       2.72517       0.97241       0.90902
    22  C(13)             -0.00367      -4.12027      -1.47022      -1.37438
    23  N(14)             -0.00714      -2.30602      -0.82285      -0.76921
    24  C(13)             -0.00221      -2.48107      -0.88531      -0.82760
    25  C(13)              0.00017       0.18876       0.06735       0.06296
    26  C(13)              0.00045       0.50382       0.17977       0.16806
    27  C(13)              0.00205       2.30243       0.82156       0.76801
    28  H(1)               0.00024       1.05669       0.37705       0.35247
    29  H(1)               0.00024       1.05669       0.37705       0.35247
    30  H(1)              -0.00007      -0.29872      -0.10659      -0.09964
    31  H(1)              -0.00010      -0.44987      -0.16052      -0.15006
    32  H(1)              -0.00010      -0.44987      -0.16052      -0.15006
    33  H(1)               0.00001       0.06463       0.02306       0.02156
    34  H(1)              -0.00004      -0.16381      -0.05845      -0.05464
    35  H(1)              -0.00047      -2.08460      -0.74384      -0.69535
    36  H(1)              -0.00025      -1.13057      -0.40342      -0.37712
    37  H(1)              -0.00043      -1.91933      -0.68487      -0.64022
    38  H(1)              -0.00053      -2.37324      -0.84683      -0.79163
    39  H(1)              -0.00047      -2.08449      -0.74380      -0.69531
    40  H(1)               0.00001       0.06462       0.02306       0.02156
    41  H(1)              -0.00004      -0.16381      -0.05845      -0.05464
    42  H(1)              -0.00053      -2.37325      -0.84683      -0.79163
    43  H(1)              -0.00025      -1.13056      -0.40341      -0.37712
    44  H(1)              -0.00024      -1.05601      -0.37681      -0.35225
    45  H(1)              -0.00024      -1.05608      -0.37684      -0.35227
    46  H(1)              -0.00077      -3.46203      -1.23534      -1.15481
    47  H(1)              -0.00043      -1.91929      -0.68485      -0.64021
    48  H(1)              -0.00077      -3.46198      -1.23532      -1.15479
    49  O(17)              0.09448     -57.27231     -20.43618     -19.10399
    50  H(1)               0.00019       0.85087       0.30361       0.28382
    51  H(1)               0.00023       1.03054       0.36772       0.34375
 --------------------------------------------------------
       Center         ----  Spin Dipole Couplings  ----
                      3XX-RR        3YY-RR        3ZZ-RR
 --------------------------------------------------------
     1   Atom       -0.065198     -0.090147      0.155345
     2   Atom       -0.011557     -0.001966      0.013524
     3   Atom       -0.007674     -0.002878      0.010552
     4   Atom       -1.507578     -1.304659      2.812237
     5   Atom       -0.001421      0.002325     -0.000903
     6   Atom        0.004984      0.016163     -0.021147
     7   Atom       -0.000482      0.001935     -0.001454
     8   Atom        0.001867     -0.000338     -0.001529
     9   Atom        0.021837      0.012409     -0.034246
    10   Atom       -0.008699      0.004755      0.003944
    11   Atom        0.008072      0.016464     -0.024536
    12   Atom       -0.007602     -0.000022      0.007625
    13   Atom        0.008745     -0.004488     -0.004257
    14   Atom        0.002732     -0.001125     -0.001608
    15   Atom       -0.000203      0.001447     -0.001244
    16   Atom        0.008745     -0.004488     -0.004257
    17   Atom       -0.007602     -0.000022      0.007625
    18   Atom        0.008072      0.016464     -0.024536
    19   Atom       -0.000203      0.001447     -0.001244
    20   Atom        0.002732     -0.001125     -0.001608
    21   Atom        0.006006     -0.008702      0.002697
    22   Atom        0.021837      0.012410     -0.034246
    23   Atom       -0.001421      0.002325     -0.000904
    24   Atom        0.004984      0.016163     -0.021147
    25   Atom       -0.000482      0.001935     -0.001454
    26   Atom        0.001867     -0.000338     -0.001529
    27   Atom       -0.008699      0.004755      0.003944
    28   Atom        0.006236     -0.004248     -0.001987
    29   Atom        0.006236     -0.004248     -0.001987
    30   Atom        0.003587     -0.002310     -0.001276
    31   Atom       -0.002266      0.003644     -0.001378
    32   Atom       -0.002266      0.003644     -0.001378
    33   Atom        0.002303     -0.000965     -0.001338
    34   Atom        0.001776     -0.000735     -0.001041
    35   Atom        0.001159     -0.000269     -0.000890
    36   Atom        0.000077      0.000949     -0.001026
    37   Atom       -0.000319      0.001365     -0.001046
    38   Atom        0.000178      0.000937     -0.001115
    39   Atom        0.001159     -0.000269     -0.000890
    40   Atom        0.002303     -0.000965     -0.001338
    41   Atom        0.001776     -0.000735     -0.001041
    42   Atom        0.000178      0.000937     -0.001115
    43   Atom        0.000077      0.000949     -0.001026
    44   Atom       -0.000364      0.001276     -0.000911
    45   Atom       -0.000364      0.001276     -0.000911
    46   Atom        0.001194     -0.000181     -0.001013
    47   Atom       -0.000319      0.001365     -0.001046
    48   Atom        0.001194     -0.000181     -0.001013
    49   Atom       -0.065197     -0.090148      0.155345
    50   Atom       -0.007674     -0.002878      0.010552
    51   Atom       -0.011557     -0.001966      0.013524
 --------------------------------------------------------
                        XY            XZ            YZ
 --------------------------------------------------------
     1   Atom        0.012075     -0.080016     -0.035160
     2   Atom        0.002510      0.001288      0.009823
     3   Atom       -0.006245      0.005036     -0.010515
     4   Atom       -0.000002      0.000007     -0.337025
     5   Atom       -0.015543     -0.002012      0.002563
     6   Atom       -0.005058      0.000758     -0.002183
     7   Atom       -0.002179      0.000135     -0.000038
     8   Atom       -0.002095     -0.000067      0.000114
     9   Atom       -0.006147      0.000218      0.001007
    10   Atom        0.001028     -0.000642      0.000765
    11   Atom        0.006385      0.002662     -0.001068
    12   Atom        0.012878     -0.002047      0.001495
    13   Atom        0.005483      0.001303      0.000771
    14   Atom        0.002492     -0.000066     -0.000009
    15   Atom        0.002119      0.000114      0.000090
    16   Atom       -0.005483     -0.001303      0.000771
    17   Atom       -0.012878      0.002046      0.001495
    18   Atom       -0.006385     -0.002662     -0.001067
    19   Atom       -0.002119     -0.000114      0.000090
    20   Atom       -0.002492      0.000066     -0.000009
    21   Atom        0.000000      0.000000     -0.000434
    22   Atom        0.006147     -0.000218      0.001007
    23   Atom        0.015543      0.002012      0.002563
    24   Atom        0.005058     -0.000758     -0.002183
    25   Atom        0.002179     -0.000135     -0.000038
    26   Atom        0.002095      0.000067      0.000114
    27   Atom       -0.001028      0.000642      0.000765
    28   Atom        0.001873      0.004630      0.000851
    29   Atom       -0.001873     -0.004630      0.000851
    30   Atom        0.000000      0.000000     -0.000028
    31   Atom       -0.000466      0.000043     -0.000034
    32   Atom        0.000466     -0.000043     -0.000034
    33   Atom       -0.001891      0.000982     -0.000525
    34   Atom       -0.001238     -0.000244      0.000114
    35   Atom       -0.001329      0.000174     -0.000155
    36   Atom       -0.001553      0.000137     -0.000113
    37   Atom        0.001596     -0.000368     -0.000519
    38   Atom       -0.001780     -0.000498      0.000586
    39   Atom        0.001329     -0.000174     -0.000155
    40   Atom        0.001891     -0.000982     -0.000525
    41   Atom        0.001238      0.000244      0.000114
    42   Atom        0.001780      0.000498      0.000586
    43   Atom        0.001553     -0.000137     -0.000113
    44   Atom        0.001353      0.000158      0.000185
    45   Atom       -0.001353     -0.000158      0.000185
    46   Atom        0.001507      0.000387      0.000269
    47   Atom       -0.001596      0.000368     -0.000519
    48   Atom       -0.001507     -0.000387      0.000269
    49   Atom       -0.012075      0.080019     -0.035159
    50   Atom        0.006245     -0.005036     -0.010515
    51   Atom       -0.002510     -0.001288      0.009823
 --------------------------------------------------------


 ---------------------------------------------------------------------------------
              Anisotropic Spin Dipole Couplings in Principal Axis System
 ---------------------------------------------------------------------------------

       Atom             a.u.   MegaHertz   Gauss  10(-4) cm-1        Axes

              Baa    -0.0952     6.892     2.459     2.299 -0.1849  0.9796  0.0784
     1 O(17)  Bbb    -0.0911     6.590     2.352     2.198  0.9338  0.1502  0.3247
              Bcc     0.1863   -13.482    -4.811    -4.497 -0.3063 -0.1333  0.9426
 
              Baa    -0.0122    -6.534    -2.331    -2.179  0.9534 -0.2946  0.0646
     2 H(1)   Bbb    -0.0062    -3.314    -1.183    -1.106  0.2921  0.8485 -0.4414
              Bcc     0.0185     9.848     3.514     3.285  0.0752  0.4397  0.8950
 
              Baa    -0.0122    -6.518    -2.326    -2.174  0.7457  0.6522  0.1363
     3 H(1)   Bbb    -0.0062    -3.325    -1.186    -1.109  0.6062 -0.5793 -0.5449
              Bcc     0.0184     9.843     3.512     3.283  0.2764 -0.4889  0.8274
 
              Baa    -1.5076  -190.376   -67.931   -63.503  1.0000  0.0000  0.0000
     4 Co(59) Bbb    -1.3321  -168.212   -60.022   -56.110  0.0000  0.9967  0.0811
              Bcc     2.8396   358.588   127.953   119.612  0.0000 -0.0811  0.9967
 
              Baa    -0.0152    -0.586    -0.209    -0.196  0.7472  0.6645 -0.0140
     5 N(14)  Bbb    -0.0015    -0.058    -0.021    -0.019  0.1310 -0.1266  0.9833
              Bcc     0.0167     0.644     0.230     0.215 -0.6516  0.7365  0.1816
 
              Baa    -0.0213    -2.856    -1.019    -0.953 -0.0181  0.0558  0.9983
     6 C(13)  Bbb     0.0030     0.407     0.145     0.136  0.9333  0.3590 -0.0032
              Bcc     0.0182     2.449     0.874     0.817 -0.3586  0.9317 -0.0585
 
              Baa    -0.0018    -0.241    -0.086    -0.080  0.8308  0.4827 -0.2769
     7 C(13)  Bbb    -0.0014    -0.192    -0.068    -0.064  0.2280  0.1587  0.9606
              Bcc     0.0032     0.432     0.154     0.144 -0.5077  0.8613 -0.0218
 
              Baa    -0.0016    -0.220    -0.079    -0.073  0.4354  0.7451 -0.5053
     8 C(13)  Bbb    -0.0015    -0.201    -0.072    -0.067  0.2798  0.4214  0.8626
              Bcc     0.0031     0.421     0.150     0.140  0.8556 -0.5170 -0.0250
 
              Baa    -0.0343    -4.599    -1.641    -1.534 -0.0063 -0.0224  0.9997
     9 C(13)  Bbb     0.0094     1.261     0.450     0.421  0.4426  0.8964  0.0229
              Bcc     0.0249     3.337     1.191     1.113  0.8967 -0.4427 -0.0042
 
              Baa    -0.0088    -1.183    -0.422    -0.395  0.9954 -0.0785  0.0548
    10 C(13)  Bbb     0.0036     0.480     0.171     0.160 -0.0863 -0.4885  0.8683
              Bcc     0.0052     0.703     0.251     0.234  0.0414  0.8690  0.4931
 
              Baa    -0.0248    -3.330    -1.188    -1.111 -0.0882  0.0394  0.9953
    11 C(13)  Bbb     0.0049     0.658     0.235     0.219  0.8750 -0.4744  0.0963
              Bcc     0.0199     2.672     0.953     0.891  0.4760  0.8794  0.0074
 
              Baa    -0.0175    -0.675    -0.241    -0.225  0.7967 -0.5959  0.1004
    12 N(14)  Bbb     0.0079     0.304     0.108     0.101 -0.0705  0.0734  0.9948
              Bcc     0.0096     0.371     0.132     0.124  0.6002  0.7997 -0.0165
 
              Baa    -0.0065    -0.873    -0.311    -0.291 -0.3253  0.9362 -0.1328
    13 C(13)  Bbb    -0.0044    -0.586    -0.209    -0.195 -0.1367  0.0924  0.9863
              Bcc     0.0109     1.458     0.520     0.486  0.9357  0.3390  0.0979
 
              Baa    -0.0023    -0.315    -0.112    -0.105 -0.4405  0.8973 -0.0280
    14 C(13)  Bbb    -0.0016    -0.216    -0.077    -0.072 -0.0021  0.0301  0.9995
              Bcc     0.0040     0.531     0.189     0.177  0.8977  0.4404 -0.0114
 
              Baa    -0.0017    -0.222    -0.079    -0.074  0.8227 -0.5586 -0.1061
    15 C(13)  Bbb    -0.0012    -0.167    -0.060    -0.056  0.0688 -0.0874  0.9938
              Bcc     0.0029     0.389     0.139     0.130  0.5644  0.8248  0.0335
 
              Baa    -0.0065    -0.873    -0.311    -0.291  0.3253  0.9362 -0.1328
    16 C(13)  Bbb    -0.0044    -0.586    -0.209    -0.195  0.1367  0.0924  0.9863
              Bcc     0.0109     1.458     0.520     0.486  0.9357 -0.3390 -0.0979
 
              Baa    -0.0175    -0.675    -0.241    -0.225  0.7967  0.5959 -0.1004
    17 N(14)  Bbb     0.0079     0.304     0.108     0.101  0.0705  0.0734  0.9948
              Bcc     0.0096     0.371     0.132     0.124 -0.6002  0.7997 -0.0165
 
              Baa    -0.0248    -3.330    -1.188    -1.111  0.0882  0.0394  0.9953
    18 C(13)  Bbb     0.0049     0.658     0.235     0.219  0.8750  0.4744 -0.0963
              Bcc     0.0199     2.672     0.953     0.891 -0.4760  0.8794  0.0074
 
              Baa    -0.0017    -0.222    -0.079    -0.074  0.8227  0.5586  0.1061
    19 C(13)  Bbb    -0.0012    -0.167    -0.060    -0.056 -0.0688 -0.0874  0.9938
              Bcc     0.0029     0.389     0.139     0.130 -0.5644  0.8248  0.0335
 
              Baa    -0.0023    -0.315    -0.112    -0.105  0.4405  0.8973 -0.0280
    20 C(13)  Bbb    -0.0016    -0.216    -0.077    -0.072  0.0022  0.0301  0.9995
              Bcc     0.0040     0.531     0.189     0.177  0.8977 -0.4404  0.0113
 
              Baa    -0.0087    -1.170    -0.417    -0.390  0.0000  0.9993  0.0380
    21 C(13)  Bbb     0.0027     0.364     0.130     0.121  0.0000 -0.0380  0.9993
              Bcc     0.0060     0.806     0.288     0.269  1.0000  0.0000  0.0000
 
              Baa    -0.0343    -4.599    -1.641    -1.534  0.0063 -0.0224  0.9997
    22 C(13)  Bbb     0.0094     1.261     0.450     0.421 -0.4426  0.8964  0.0229
              Bcc     0.0249     3.337     1.191     1.113  0.8967  0.4427  0.0042
 
              Baa    -0.0152    -0.586    -0.209    -0.196  0.7472 -0.6645  0.0140
    23 N(14)  Bbb    -0.0015    -0.058    -0.021    -0.019 -0.1310 -0.1266  0.9833
              Bcc     0.0167     0.644     0.230     0.215  0.6516  0.7365  0.1816
 
              Baa    -0.0213    -2.856    -1.019    -0.953  0.0181  0.0558  0.9983
    24 C(13)  Bbb     0.0030     0.407     0.145     0.136  0.9333 -0.3590  0.0032
              Bcc     0.0182     2.449     0.874     0.817  0.3586  0.9317 -0.0585
 
              Baa    -0.0018    -0.241    -0.086    -0.080  0.8308 -0.4827  0.2769
    25 C(13)  Bbb    -0.0014    -0.192    -0.068    -0.064 -0.2280  0.1587  0.9606
              Bcc     0.0032     0.432     0.154     0.144  0.5077  0.8613 -0.0218
 
              Baa    -0.0016    -0.220    -0.079    -0.073 -0.4354  0.7451 -0.5052
    26 C(13)  Bbb    -0.0015    -0.201    -0.072    -0.067 -0.2798  0.4214  0.8626
              Bcc     0.0031     0.421     0.150     0.140  0.8556  0.5170  0.0250
 
              Baa    -0.0088    -1.183    -0.422    -0.395  0.9954  0.0785 -0.0548
    27 C(13)  Bbb     0.0036     0.480     0.171     0.160  0.0863 -0.4885  0.8683
              Bcc     0.0052     0.703     0.251     0.234 -0.0414  0.8690  0.4930
 
              Baa    -0.0046    -2.442    -0.871    -0.814 -0.1366  0.9874 -0.0803
    28 H(1)   Bbb    -0.0041    -2.170    -0.774    -0.724 -0.4124  0.0170  0.9108
              Bcc     0.0086     4.612     1.646     1.538  0.9007  0.1576  0.4048
 
              Baa    -0.0046    -2.442    -0.871    -0.814  0.1366  0.9874 -0.0803
    29 H(1)   Bbb    -0.0041    -2.170    -0.774    -0.724  0.4124  0.0170  0.9108
              Bcc     0.0086     4.612     1.646     1.538  0.9007 -0.1576 -0.4049
 
              Baa    -0.0023    -1.233    -0.440    -0.411  0.0000  0.9996  0.0270
    30 H(1)   Bbb    -0.0013    -0.681    -0.243    -0.227  0.0000 -0.0270  0.9996
              Bcc     0.0036     1.914     0.683     0.638  1.0000  0.0000  0.0000
 
              Baa    -0.0023    -1.230    -0.439    -0.410  0.9960  0.0779 -0.0431
    31 H(1)   Bbb    -0.0014    -0.734    -0.262    -0.245  0.0424  0.0107  0.9990
              Bcc     0.0037     1.964     0.701     0.655 -0.0782  0.9969 -0.0073
 
              Baa    -0.0023    -1.230    -0.439    -0.410  0.9960 -0.0779  0.0431
    32 H(1)   Bbb    -0.0014    -0.734    -0.262    -0.245 -0.0424  0.0107  0.9990
              Bcc     0.0037     1.964     0.701     0.655  0.0782  0.9969 -0.0073
 
              Baa    -0.0018    -0.986    -0.352    -0.329  0.3511  0.9018  0.2521
    33 H(1)   Bbb    -0.0016    -0.843    -0.301    -0.281 -0.3076 -0.1432  0.9407
              Bcc     0.0034     1.828     0.652     0.610  0.8844 -0.4078  0.2271
 
              Baa    -0.0012    -0.664    -0.237    -0.221  0.3734  0.9249 -0.0716
    34 H(1)   Bbb    -0.0011    -0.566    -0.202    -0.189  0.1012  0.0361  0.9942
              Bcc     0.0023     1.230     0.439     0.410  0.9221 -0.3785 -0.0802
 
              Baa    -0.0011    -0.574    -0.205    -0.191  0.4798  0.8398  0.2539
    35 H(1)   Bbb    -0.0009    -0.479    -0.171    -0.160 -0.1970 -0.1789  0.9639
              Bcc     0.0020     1.052     0.375     0.351  0.8550 -0.5125  0.0796
 
              Baa    -0.0011    -0.597    -0.213    -0.199  0.7319  0.5255 -0.4339
    36 H(1)   Bbb    -0.0010    -0.542    -0.193    -0.181  0.3164  0.3018  0.8993
              Bcc     0.0021     1.139     0.407     0.380 -0.6035  0.7955 -0.0546
 
              Baa    -0.0013    -0.692    -0.247    -0.231  0.8394 -0.4411  0.3176
    37 H(1)   Bbb    -0.0011    -0.611    -0.218    -0.204 -0.1883  0.3122  0.9312
              Bcc     0.0024     1.303     0.465     0.435  0.5099  0.8414 -0.1790
 
              Baa    -0.0013    -0.688    -0.245    -0.229  0.5505  0.2290  0.8028
    38 H(1)   Bbb    -0.0012    -0.667    -0.238    -0.222  0.5631  0.6081 -0.5596
              Bcc     0.0025     1.355     0.483     0.452 -0.6163  0.7601  0.2058
 
              Baa    -0.0011    -0.574    -0.205    -0.191 -0.4798  0.8398  0.2539
    39 H(1)   Bbb    -0.0009    -0.479    -0.171    -0.160  0.1970 -0.1789  0.9640
              Bcc     0.0020     1.052     0.375     0.351  0.8550  0.5125 -0.0796
 
              Baa    -0.0018    -0.986    -0.352    -0.329 -0.3511  0.9018  0.2521
    40 H(1)   Bbb    -0.0016    -0.843    -0.301    -0.281  0.3076 -0.1432  0.9407
              Bcc     0.0034     1.828     0.652     0.610  0.8844  0.4078 -0.2271
 
              Baa    -0.0012    -0.664    -0.237    -0.221 -0.3734  0.9249 -0.0716
    41 H(1)   Bbb    -0.0011    -0.566    -0.202    -0.189 -0.1012  0.0361  0.9942
              Bcc     0.0023     1.230     0.439     0.410  0.9221  0.3785  0.0802
 
              Baa    -0.0013    -0.688    -0.245    -0.229 -0.5505  0.2290  0.8028
    42 H(1)   Bbb    -0.0012    -0.667    -0.238    -0.222 -0.5631  0.6081 -0.5596
              Bcc     0.0025     1.355     0.483     0.452  0.6163  0.7601  0.2058
 
              Baa    -0.0011    -0.597    -0.213    -0.199  0.7319 -0.5255  0.4339
    43 H(1)   Bbb    -0.0010    -0.542    -0.193    -0.181 -0.3164  0.3018  0.8993
              Bcc     0.0021     1.139     0.407     0.380  0.6035  0.7955 -0.0546
 
              Baa    -0.0011    -0.607    -0.217    -0.202  0.8576 -0.4640 -0.2220
    44 H(1)   Bbb    -0.0009    -0.491    -0.175    -0.164  0.1555 -0.1776  0.9717
              Bcc     0.0021     1.098     0.392     0.366  0.4903  0.8679  0.0801
 
              Baa    -0.0011    -0.607    -0.217    -0.202  0.8576  0.4640  0.2221
    45 H(1)   Bbb    -0.0009    -0.491    -0.175    -0.164 -0.1556 -0.1776  0.9717
              Bcc     0.0021     1.098     0.392     0.366 -0.4903  0.8679  0.0801
 
              Baa    -0.0012    -0.616    -0.220    -0.205 -0.5020  0.8374 -0.2162
    46 H(1)   Bbb    -0.0011    -0.575    -0.205    -0.192 -0.2361  0.1078  0.9657
              Bcc     0.0022     1.190     0.425     0.397  0.8320  0.5358  0.1436
 
              Baa    -0.0013    -0.692    -0.247    -0.231  0.8394  0.4411 -0.3176
    47 H(1)   Bbb    -0.0011    -0.611    -0.218    -0.204  0.1883  0.3122  0.9312
              Bcc     0.0024     1.303     0.465     0.435 -0.5099  0.8414 -0.1790
 
              Baa    -0.0012    -0.616    -0.220    -0.205  0.5019  0.8374 -0.2162
    48 H(1)   Bbb    -0.0011    -0.575    -0.205    -0.192  0.2361  0.1078  0.9657
              Bcc     0.0022     1.190     0.425     0.397  0.8320 -0.5358 -0.1436
 
              Baa    -0.0952     6.892     2.459     2.299  0.1849  0.9796  0.0784
    49 O(17)  Bbb    -0.0911     6.590     2.352     2.198  0.9338 -0.1502 -0.3247
              Bcc     0.1863   -13.482    -4.811    -4.497  0.3063 -0.1332  0.9426
 
              Baa    -0.0122    -6.518    -2.326    -2.174  0.7457 -0.6522 -0.1363
    50 H(1)   Bbb    -0.0062    -3.325    -1.186    -1.109  0.6062  0.5793  0.5448
              Bcc     0.0184     9.843     3.512     3.283 -0.2764 -0.4889  0.8274
 
              Baa    -0.0122    -6.534    -2.331    -2.179  0.9534  0.2946 -0.0647
    51 H(1)   Bbb    -0.0062    -3.314    -1.183    -1.106 -0.2921  0.8485 -0.4414
              Bcc     0.0185     9.848     3.514     3.285 -0.0752  0.4397  0.8950
 

 ---------------------------------------------------------------------------------

 Calling FoFJK, ICntrl=    100527 FMM=F ISym2X=0 I1Cent= 0 IOpClX= 0 NMat=1 NMatS=1 NMatT=0.
 Full mass-weighted force constant matrix:
 Low frequencies ---   -2.2408   -0.0047    0.0041    0.0046    0.9504    2.9388
 Low frequencies ---   42.5768   52.3527   54.0124
 Diagonal vibrational polarizability:
       60.1811921     190.6512523     128.9805875
 Harmonic frequencies (cm**-1), IR intensities (KM/Mole), Raman scattering
 activities (A**4/AMU), depolarization ratios for plane and unpolarized
 incident light, reduced masses (AMU), force constants (mDyne/A),
 and normal coordinates:
                      1                      2                      3
                      A                      A                      A
 Frequencies --     42.5750                52.3499                54.0113
 Red. masses --      2.5728                 3.6138                 4.3174
 Frc consts  --      0.0027                 0.0058                 0.0074
 IR Inten    --      0.3465                 0.1306                 0.1261
  Atom  AN      X      Y      Z        X      Y      Z        X      Y      Z
     1   8     0.04  -0.02   0.01     0.04  -0.08  -0.01    -0.12   0.28   0.01
     2   1     0.05  -0.03   0.01     0.09  -0.13   0.05     0.11   0.29  -0.12
     3   1     0.05  -0.03  -0.03     0.03  -0.13  -0.09    -0.37   0.16   0.19
     4  27     0.00   0.00   0.01     0.00   0.00   0.00     0.01   0.00   0.00
     5   7     0.00   0.00   0.00     0.00   0.00   0.02     0.02   0.00   0.00
     6   6     0.00   0.01   0.08    -0.01   0.00   0.02     0.01   0.01   0.04
     7   6     0.00   0.03   0.13    -0.02   0.00   0.09     0.00   0.01   0.11
     8   6    -0.02  -0.01  -0.11     0.00   0.00   0.18     0.01   0.00   0.10
     9   6     0.00   0.00  -0.08     0.00   0.00   0.07     0.02   0.00   0.03
    10   6     0.00   0.00   0.09    -0.01   0.00  -0.05     0.01   0.01   0.03
    11   6     0.00   0.00   0.04     0.00   0.00  -0.09     0.01   0.00   0.00
    12   7     0.00   0.00   0.00     0.00   0.01  -0.04     0.01   0.00   0.00
    13   6     0.01   0.00  -0.05     0.01   0.02  -0.04     0.01   0.00  -0.01
    14   6    -0.01   0.00  -0.07    -0.01   0.00  -0.13     0.01   0.00  -0.02
    15   6     0.01   0.00   0.00     0.00   0.01  -0.17     0.01   0.00  -0.01
    16   6    -0.01   0.00  -0.05     0.01  -0.02   0.04     0.01   0.00   0.01
    17   7     0.00   0.00   0.00     0.00  -0.01   0.04     0.01   0.00   0.00
    18   6     0.00   0.00   0.04     0.00   0.00   0.09     0.01   0.00   0.00
    19   6    -0.01   0.00   0.00     0.00  -0.01   0.17     0.01   0.00   0.01
    20   6     0.01   0.00  -0.07    -0.01   0.00   0.13     0.01   0.00   0.02
    21   6     0.00   0.00  -0.13    -0.01   0.00   0.00     0.02   0.00   0.00
    22   6     0.00   0.00  -0.08     0.00   0.00  -0.07     0.02   0.00  -0.03
    23   7     0.00   0.00   0.00     0.00   0.00  -0.02     0.02   0.00   0.00
    24   6     0.00   0.01   0.08    -0.01   0.00  -0.02     0.01  -0.01  -0.04
    25   6     0.00   0.03   0.13    -0.02   0.00  -0.09     0.00  -0.01  -0.11
    26   6     0.02  -0.01  -0.11     0.00   0.00  -0.18     0.01   0.00  -0.10
    27   6     0.00   0.00   0.09    -0.01   0.00   0.05     0.01  -0.01  -0.03
    28   1     0.05  -0.01  -0.05     0.03   0.09  -0.03     0.02   0.01  -0.01
    29   1    -0.05  -0.01  -0.05     0.03  -0.09   0.03     0.02  -0.01   0.01
    30   1     0.00   0.00  -0.20    -0.01   0.00   0.00     0.02   0.00   0.00
    31   1     0.00   0.01   0.14    -0.01   0.00   0.07     0.01  -0.01  -0.06
    32   1     0.00   0.01   0.14    -0.01   0.00  -0.07     0.01   0.01   0.06
    33   1     0.06   0.03  -0.08    -0.04   0.06   0.13     0.00   0.00   0.02
    34   1    -0.02  -0.01  -0.11     0.01  -0.03   0.16     0.02   0.00   0.03
    35   1     0.11   0.03  -0.25    -0.09   0.02   0.27    -0.01   0.02   0.12
    36   1     0.02   0.02   0.02    -0.03   0.02   0.22     0.01   0.00   0.02
    37   1    -0.07   0.22   0.21    -0.09   0.02  -0.09    -0.03  -0.05  -0.12
    38   1    -0.04  -0.04   0.01     0.03  -0.07   0.19     0.03   0.00   0.01
    39   1    -0.11   0.03  -0.25    -0.09  -0.02  -0.27    -0.01  -0.02  -0.12
    40   1    -0.06   0.03  -0.08    -0.04  -0.06  -0.13     0.00   0.00  -0.02
    41   1     0.02  -0.01  -0.11     0.01   0.03  -0.16     0.02   0.00  -0.03
    42   1     0.04  -0.04   0.01     0.03   0.07  -0.19     0.03   0.00  -0.01
    43   1    -0.02   0.02   0.02    -0.03  -0.02  -0.22     0.01   0.00  -0.02
    44   1     0.04  -0.11   0.29     0.03  -0.01  -0.08     0.02   0.02  -0.14
    45   1    -0.04  -0.11   0.29     0.03   0.01   0.08     0.02  -0.02   0.14
    46   1     0.19  -0.08  -0.19     0.11   0.03  -0.24     0.04   0.04  -0.12
    47   1     0.07   0.22   0.21    -0.09  -0.02   0.09    -0.03   0.05   0.12
    48   1    -0.19  -0.08  -0.19     0.11  -0.03   0.24     0.04  -0.04   0.12
    49   8    -0.04  -0.02   0.01     0.04   0.08   0.01    -0.12  -0.28  -0.01
    50   1    -0.05  -0.03  -0.03     0.03   0.13   0.09    -0.37  -0.16  -0.19
    51   1    -0.05  -0.03   0.01     0.09   0.13  -0.05     0.11  -0.29   0.12
                      4                      5                      6
                      A                      A                      A
 Frequencies --     60.2432                68.4498                74.2571
 Red. masses --      3.4015                 1.9115                 1.0731
 Frc consts  --      0.0073                 0.0053                 0.0035
 IR Inten    --      3.9716                 0.4868                 2.9975
  Atom  AN      X      Y      Z        X      Y      Z        X      Y      Z
     1   8     0.20  -0.16  -0.03     0.00  -0.01  -0.01     0.02   0.01   0.00
     2   1     0.34  -0.27   0.08    -0.09   0.02  -0.01     0.49  -0.16   0.05
     3   1     0.18  -0.29  -0.24     0.08   0.06   0.00    -0.32  -0.33  -0.09
     4  27     0.00   0.02  -0.03     0.00   0.00   0.00     0.00   0.00   0.00
     5   7     0.00   0.02  -0.01     0.00   0.01   0.01     0.00   0.00  -0.02
     6   6     0.00   0.02  -0.02     0.00   0.01   0.04     0.00   0.00  -0.01
     7   6     0.00   0.02  -0.02     0.00   0.03   0.12     0.00   0.01   0.01
     8   6     0.01   0.02   0.01    -0.02  -0.01  -0.12     0.00   0.00  -0.02
     9   6     0.00   0.02   0.00     0.00   0.00  -0.03     0.00   0.00  -0.01
    10   6     0.00   0.02   0.00     0.00   0.00   0.02     0.00   0.00  -0.01
    11   6     0.00   0.02   0.01     0.00   0.00  -0.02     0.00   0.00   0.00
    12   7     0.00   0.02  -0.02     0.00   0.00  -0.01     0.00   0.00   0.01
    13   6    -0.01   0.01   0.03     0.01   0.01  -0.02     0.00   0.00   0.01
    14   6     0.00   0.02   0.08     0.00   0.00  -0.06     0.00   0.00   0.01
    15   6     0.00   0.01   0.06     0.00   0.00  -0.05     0.00   0.00   0.00
    16   6     0.01   0.01   0.03     0.01  -0.01   0.02     0.00   0.00  -0.01
    17   7     0.00   0.02  -0.02     0.00   0.00   0.01     0.00   0.00  -0.01
    18   6     0.00   0.02   0.01     0.00   0.00   0.02     0.00   0.00   0.00
    19   6     0.00   0.01   0.06     0.00   0.00   0.05     0.00   0.00   0.00
    20   6     0.00   0.02   0.08     0.00   0.00   0.06     0.00   0.00  -0.01
    21   6     0.00   0.02   0.00     0.00   0.00   0.00     0.00   0.00   0.00
    22   6     0.00   0.02   0.00     0.00   0.00   0.03     0.00   0.00   0.01
    23   7     0.00   0.02  -0.01     0.00  -0.01  -0.01     0.00   0.00   0.02
    24   6     0.00   0.02  -0.02     0.00  -0.01  -0.04     0.00   0.00   0.01
    25   6     0.00   0.02  -0.02     0.00  -0.03  -0.12     0.00  -0.01  -0.01
    26   6    -0.01   0.02   0.01    -0.02   0.01   0.12     0.00   0.00   0.02
    27   6     0.00   0.02   0.00     0.00   0.00  -0.02     0.00   0.00   0.01
    28   1    -0.06   0.01   0.04     0.02   0.04  -0.01     0.00  -0.01   0.00
    29   1     0.06   0.01   0.04     0.02  -0.04   0.01     0.00   0.01   0.00
    30   1     0.00   0.02   0.01     0.00   0.00   0.00     0.00   0.00   0.00
    31   1     0.00   0.02   0.00     0.00   0.00  -0.04     0.00   0.00   0.01
    32   1     0.00   0.02   0.00     0.00   0.00   0.04     0.00   0.00  -0.01
    33   1    -0.04   0.03   0.08    -0.03   0.02   0.06     0.01   0.00  -0.01
    34   1     0.01   0.01   0.11     0.01  -0.01   0.08    -0.01   0.00  -0.02
    35   1    -0.01   0.02   0.03     0.14   0.00  -0.29     0.01   0.00  -0.04
    36   1    -0.02   0.02   0.07    -0.01   0.00   0.07     0.00   0.00   0.00
    37   1     0.00  -0.01  -0.04     0.06  -0.24  -0.22     0.00  -0.05  -0.03
    38   1     0.04   0.01   0.07     0.03  -0.02   0.06    -0.01  -0.01   0.00
    39   1     0.01   0.02   0.03     0.14   0.00   0.29     0.02   0.00   0.04
    40   1     0.04   0.03   0.08    -0.03  -0.02  -0.06     0.01   0.00   0.01
    41   1    -0.01   0.01   0.11     0.01   0.01  -0.08    -0.01   0.00   0.02
    42   1    -0.04   0.01   0.07     0.03   0.02  -0.06    -0.01   0.01   0.00
    43   1     0.02   0.02   0.07    -0.01   0.00  -0.07     0.00   0.00   0.00
    44   1    -0.01   0.03  -0.05    -0.03   0.12  -0.30     0.00   0.02  -0.04
    45   1     0.01   0.03  -0.05    -0.03  -0.12   0.30     0.00  -0.02   0.04
    46   1    -0.03   0.03   0.02    -0.23   0.05   0.22    -0.03   0.01   0.04
    47   1     0.00  -0.01  -0.04     0.06   0.24   0.22     0.00   0.05   0.03
    48   1     0.03   0.03   0.02    -0.23  -0.05  -0.22    -0.03  -0.01  -0.04
    49   8    -0.20  -0.16  -0.03     0.00   0.01   0.01     0.02  -0.01   0.00
    50   1    -0.18  -0.29  -0.24     0.08  -0.06   0.00    -0.32   0.33   0.09
    51   1    -0.34  -0.27   0.08    -0.09  -0.02   0.01     0.49   0.16  -0.05
                      7                      8                      9
                      A                      A                      A
 Frequencies --     76.6311                82.2717                96.7018
 Red. masses --      4.9462                 1.7190                 4.1571
 Frc consts  --      0.0171                 0.0069                 0.0229
 IR Inten    --      2.2573                25.9442                 2.7254
  Atom  AN      X      Y      Z        X      Y      Z        X      Y      Z
     1   8     0.03  -0.08   0.12     0.12   0.07   0.02     0.28   0.12   0.02
     2   1     0.05  -0.11   0.17    -0.23   0.24  -0.10     0.27   0.20  -0.11
     3   1     0.06  -0.10   0.04     0.43   0.37   0.11     0.44   0.23  -0.03
     4  27     0.00   0.01   0.15     0.00  -0.01   0.00    -0.02   0.00   0.00
     5   7     0.00   0.01   0.06     0.00  -0.01   0.01    -0.03   0.00  -0.01
     6   6     0.00   0.00  -0.03     0.00  -0.01  -0.01    -0.03   0.00   0.01
     7   6     0.01  -0.01  -0.15     0.00  -0.01  -0.01    -0.03   0.00   0.03
     8   6     0.00   0.01  -0.13     0.00  -0.01  -0.03    -0.03   0.00   0.02
     9   6     0.00   0.01  -0.01     0.00  -0.01   0.00    -0.03   0.00   0.00
    10   6     0.00   0.00  -0.05     0.00  -0.01  -0.02    -0.03   0.00   0.03
    11   6     0.00   0.01  -0.01     0.00  -0.01  -0.01    -0.03   0.00   0.01
    12   7     0.01   0.01   0.10     0.00  -0.01  -0.01    -0.03   0.00  -0.01
    13   6     0.03   0.02   0.01    -0.01  -0.01   0.02    -0.03   0.00   0.00
    14   6     0.00   0.01  -0.10     0.01  -0.01   0.04    -0.03   0.01   0.01
    15   6     0.01   0.02  -0.14     0.00  -0.01   0.01    -0.03   0.00   0.03
    16   6    -0.03   0.02   0.01     0.01  -0.01   0.02    -0.03   0.00   0.00
    17   7    -0.01   0.01   0.10     0.00  -0.01  -0.01    -0.03   0.00   0.01
    18   6     0.00   0.01  -0.01     0.00  -0.01  -0.01    -0.03   0.00  -0.01
    19   6    -0.01   0.02  -0.14     0.00  -0.01   0.01    -0.03   0.00  -0.03
    20   6     0.00   0.01  -0.10    -0.01  -0.01   0.04    -0.03  -0.01  -0.01
    21   6     0.00   0.01  -0.01     0.00  -0.01  -0.01    -0.03   0.00   0.00
    22   6     0.00   0.01  -0.01     0.00  -0.01   0.00    -0.03   0.00   0.00
    23   7     0.00   0.01   0.06     0.00  -0.01   0.01    -0.03   0.00   0.01
    24   6     0.00   0.00  -0.03     0.00  -0.01  -0.01    -0.03   0.00  -0.01
    25   6    -0.01  -0.01  -0.15     0.00  -0.01  -0.01    -0.03   0.00  -0.03
    26   6     0.00   0.01  -0.13     0.00  -0.01  -0.03    -0.03   0.00  -0.02
    27   6     0.00   0.00  -0.05     0.00  -0.01  -0.02    -0.03   0.00  -0.03
    28   1     0.12   0.04   0.01    -0.03  -0.01   0.02    -0.03   0.00   0.00
    29   1    -0.12   0.04   0.01     0.03  -0.01   0.02    -0.03   0.00   0.00
    30   1     0.00   0.01  -0.07     0.00  -0.01  -0.02    -0.03   0.00   0.00
    31   1    -0.01  -0.01  -0.14     0.00  -0.01  -0.03    -0.04   0.00  -0.05
    32   1     0.01  -0.01  -0.14     0.00  -0.01  -0.03    -0.04   0.00   0.05
    33   1     0.06  -0.06  -0.10    -0.03  -0.02   0.04    -0.03  -0.02  -0.01
    34   1    -0.02   0.04  -0.15     0.01  -0.01   0.06    -0.03   0.00  -0.01
    35   1     0.03  -0.04  -0.16     0.02  -0.01  -0.06    -0.04   0.01   0.03
    36   1     0.04  -0.03  -0.21    -0.01  -0.02   0.00    -0.03  -0.02  -0.05
    37   1    -0.06  -0.08  -0.18    -0.01   0.01  -0.01    -0.04  -0.01  -0.03
    38   1    -0.07   0.10  -0.17     0.02   0.00   0.00    -0.04   0.02  -0.04
    39   1    -0.03  -0.04  -0.16    -0.02  -0.01  -0.06    -0.04  -0.01  -0.03
[...]
 00000130,-0.00000208,0.00001198,0.00000239,-0.00003650,0.00001654,0.00
 000914,-0.00001850,0.00001396,-0.00000281,0.00000050,-0.00001283,0.000
 00504,-0.00072945,0.00123265,0.00027591,0.00000085,-0.00004807,0.00000
 886,0.00391686,-0.00195829,0.00092816,0.01369810,0.05463144,0.00000751
 ,0.00000140,0.00001665,-0.00000431,0.00000443,-0.00000521,-0.00000721,
 0.00001201,-0.00000798,0.00000491,-0.00007306,-0.00019241,0.00083480,-
 0.00040473,-0.00054089,0.00015549,0.00066673,-0.00031904,-0.00003527,0
 .00053192,-0.00202659,-0.09614320,-0.02612392,-0.25192927,-0.00005191,
 -0.00218513,0.00274100,0.00001774,-0.00014362,-0.00022691,0.00005149,-
 0.00001004,0.00002030,-0.00007961,0.00001769,0.00000593,0.00002619,0.0
 0000067,-0.00000279,-0.00000036,-0.00000434,0.00000390,0.00000932,-0.0
 0001689,0.00001590,-0.00001202,0.00000605,0.00000931,0.00004352,-0.000
 01546,0.00003874,-0.00008504,0.00008157,-0.00000660,0.00000141,-0.0000
 0657,-0.00000194,0.00000600,-0.00000403,-0.00000541,-0.00039428,0.0010
 4134,0.00079553,-0.00048618,-0.00079048,0.00007449,0.00042386,0.000240
 06,0.00000731,-0.00009048,-0.00017931,-0.00004229,0.00000062,-0.000007
 75,0.00001428,-0.00005976,0.00002105,0.00000890,0.00013301,0.00003558,
 0.00000002,-0.00001402,-0.00000634,0.00000504,0.00000531,-0.00000454,-
 0.00000211,0.00004468,-0.00021552,-0.00033014,0.00000272,-0.00000246,0
 .00000884,0.00002364,-0.00002273,-0.00001583,-0.00000003,0.00000069,0.
 00000101,-0.00000191,-0.00000092,-0.00000113,-0.01010941,-0.00323305,-
 0.02189115,-0.00000318,-0.00000297,0.00000144,0.00000728,-0.00000347,0
 .00000008,-0.00000588,-0.00000285,-0.00000294,0.00002158,-0.00000965,0
 .00001392,0.00000086,0.00000003,-0.00000070,-0.00000565,-0.00000103,0.
 00000064,-0.00000448,0.00000079,0.00000117,0.00000723,-0.00000080,-0.0
 0000129,0.00000603,0.00000317,-0.00000095,0.00023738,0.00003336,0.0014
 7466,0.00001329,0.00000886,-0.00000894,-0.00098278,0.00038651,0.000861
 12,0.10648181,0.03039070,0.27143810,0.00082477,-0.00004608,0.00032570,
 -0.00001453,-0.00003699,-0.00013641,-0.00004251,0.00006608,-0.00021318
 ,-0.00505419,0.00090231,-0.00077162,-0.00037382,-0.00127938,-0.0016757
 1,-0.00059332,0.00069183,-0.00004746,0.00000128,0.00003288,0.00007729,
 0.00006375,0.00005446,0.00018233,0.00002769,0.00031809,-0.00004665,0.0
 0100378,0.00010731,-0.00032446,-0.00076276,-0.00235323,0.00034858,-0.0
 0096692,0.00252320,0.00278978,0.00032766,-0.00023936,-0.00015517,0.000
 05104,-0.00003132,-0.00011146,-0.00009907,0.00008206,-0.00019900,0.000
 29773,0.00008477,-0.00174547,-0.00127935,-0.00270334,0.00267802,-0.000
 80887,0.00220680,0.00018645,-0.00010327,-0.00010506,-0.00024129,0.0002
 5061,0.00017934,0.00035782,0.00020566,-0.00008031,-0.00018450,0.000332
 24,-0.00014010,0.00014309,-0.00022405,0.00100980,-0.00156964,-0.000831
 87,-0.00106093,-0.00001519,0.00000320,-0.00000862,0.00018039,0.0000632
 9,-0.00005834,0.00015880,0.00105397,-0.00007163,-0.00004350,-0.0000651
 1,0.00016798,0.00016069,0.00108595,-0.00012794,0.00070507,0.00003682,-
 0.00000675,0.00003227,0.00005189,-0.00004060,0.00000482,0.00003930,0.0
 0004638,0.00002441,-0.00006855,-0.00013632,0.00010300,0.00001201,-0.00
 001929,-0.00004167,0.00009446,0.00004110,0.00003181,0.00003704,-0.0000
 4593,0.00003319,0.00006444,-0.00001233,-0.00002563,-0.00003116,0.00001
 924,0.00000856,0.00002821,-0.00002811,-0.00003151,0.00006190,-0.000026
 03,0.00009160,0.00000446,0.00002827,0.00006433,0.00006260,-0.00000164,
 0.00002534,-0.00005293,0.00004244,-0.00002106,0.00002554,-0.00002498,0
 .00001315,0.00005339,0.00000834,-0.00004476,0.00011131,-0.00006637,-0.
 00000751,0.00006798,0.00011015,-0.00002275,0.00002678,0.00003455,-0.00
 001793,0.23275150,0.00004608,0.00112905,0.00018782,0.00000913,-0.00003
 965,0.00030403,-0.00003466,0.00002298,-0.00020262,0.00070526,-0.009623
 83,-0.00033942,-0.00286172,-0.00082709,-0.00381126,0.00018767,0.000561
 04,0.00006831,0.00012179,0.00009214,0.00015372,-0.00003916,-0.00001773
 ,0.00036183,0.00223930,-0.00142084,-0.00015845,-0.00024899,0.00030947,
 -0.00002463,-0.00044617,0.00124308,0.00003668,0.00147134,-0.00125227,-
 0.00246481,-0.00044252,-0.00038356,-0.00017996,0.00006946,0.00004615,0
 .00007284,-0.00001771,0.00003346,0.00022846,0.00055717,-0.00027535,-0.
 00000417,-0.00209253,-0.00252877,0.00357924,-0.00016642,0.00192201,-0.
 00010642,0.00000584,-0.00001607,-0.00037100,-0.00002450,0.00002726,-0.
 00000073,-0.00002336,0.00145140,-0.00003714,-0.00226838,-0.00106382,-0
 .00014140,0.00209061,-0.00129777,0.00310215,-0.00000111,0.00039000,0.0
 0006114,-0.00001587,-0.00005155,-0.00011602,0.00003020,-0.00001298,-0.
 00021140,0.00055122,-0.00009354,-0.00002073,0.00011902,0.00013776,-0.0
 0003659,0.00019236,-0.00008532,0.00002970,0.00001445,0.00006306,0.0000
 2022,0.00000163,-0.00001753,0.00000347,-0.00000064,0.00000896,-0.00000
 006,-0.00000996,-0.00001022,0.00002735,-0.00004173,-0.00002103,-0.0000
 1417,0.00000356,-0.00001936,0.00002213,0.00003162,0.00001994,0.0000333
 1,0.00002567,0.00000892,0.00001323,-0.00002354,0.00000515,0.00001566,0
 .00000940,0.00003421,0.00003868,-0.00002340,-0.00003305,-0.00002545,0.
 00001106,0.00000471,-0.00001578,-0.00005054,0.00003880,-0.00000024,0.0
 0001645,0.00004493,0.00003067,0.00002345,0.00001619,-0.00002207,-0.000
 01631,0.00003047,-0.00004777,-0.00001721,0.00000252,0.00000140,0.00004
 980,0.00016399,0.00000237,0.00002388,0.00010851,-0.00003826,-0.0997409
 4,0.61112674,-0.00032569,0.00018779,-0.00211935,0.00001828,0.00013241,
 -0.00015838,-0.00001876,-0.00011584,-0.00016269,0.00530842,0.00054413,
 -0.00552650,-0.00280361,-0.00256766,-0.00256654,0.00026148,0.00027105,
 -0.00066278,-0.00005502,-0.00006463,0.00004565,-0.00014025,-0.00004365
 ,0.00002256,0.00076637,-0.00027598,-0.00029826,-0.00053806,-0.00017109
 ,0.00008194,0.00056603,0.00149069,0.00018249,0.00161652,-0.00181791,-0
 .00309647,-0.00040354,-0.00054381,0.00010648,0.00002624,-0.00005831,-0
 .00014261,0.00001465,-0.00012172,0.00017262,-0.00070450,0.00029924,-0.
 00029126,0.00186252,0.00281399,-0.00334866,0.00049878,-0.00131416,-0.0
 0002184,0.00002793,0.00014616,0.00021462,-0.00002421,0.00008032,0.0001
 4470,-0.00018244,0.00008930,0.00026387,0.00045748,0.00024110,-0.000355
 78,-0.00145065,0.00173117,-0.00061169,0.00003054,-0.00013292,-0.000306
 90,-0.00003584,0.00010284,-0.00009495,-0.00010935,0.00004804,0.0000415
 5,-0.00039076,0.00019468,0.00002754,0.00010632,0.00003899,-0.00000211,
 0.00002866,-0.00007906,0.00002620,-0.00008484,0.00000471,-0.00005128,-
 0.00000773,0.00006158,-0.00003989,-0.00000786,-0.00008080,-0.00005143,
 -0.00004154,-0.00003182,0.00001516,0.00011367,0.00002970,-0.00001598,-
 0.00013750,-0.00011781,-0.00001778,0.00003788,0.00003186,-0.00001761,-
 0.00006887,0.00001748,0.00000561,0.00017310,0.00009773,0.00000916,-0.0
 0003591,0.00004951,0.00000223,0.00004072,-0.00000600,0.00004911,0.0000
 7949,-0.00002502,0.00002254,0.00004327,0.00001512,-0.00001520,0.000126
 21,-0.00007808,0.00000040,-0.00004673,0.00008221,-0.00001098,-0.000046
 74,-0.00003179,0.00002918,-0.00012529,0.00014037,0.00001664,-0.0000930
 9,-0.00015286,0.00002809,-0.00001268,-0.00004897,0.00000994,0.19199651
 ,0.07007502,0.24524989,-0.00004251,0.00003467,0.00001877,0.00008820,0.
 00002450,0.00005920,0.00000870,-0.00007636,-0.00002946,0.00036468,-0.0
 0089486,-0.00060828,-0.00015883,0.00005434,-0.00006750,0.00032446,-0.0
 0056293,-0.00026130,-0.00010478,-0.00006433,-0.00004168,-0.00003916,-0
 .00000519,-0.00005028,-0.00017184,0.00032449,-0.00006432,-0.00056995,-
 0.00010645,0.00040683,0.00079747,0.00172561,-0.00035650,0.00015900,-0.
 00158778,-0.00110718,-0.00009736,0.00002271,0.00028820,0.00003357,0.00
 003905,0.00027040,-0.00001111,0.00000666,0.00004351,0.00022377,-0.0001
 8910,0.00098584,-0.00005364,0.00027777,0.00045658,0.00012180,-0.000305
 24,-0.00005972,0.00004916,-0.00000871,-0.00004218,-0.00010392,-0.00009
 374,-0.00023300,-0.00000456,-0.00021502,0.00007665,0.00040231,0.000095
 25,0.00006371,-0.00007267,0.00010118,-0.00011524,0.00001892,0.00005445
 ,-0.00004948,-0.00000880,0.00003132,0.00000553,-0.00000370,-0.00000792
 ,-0.00000823,-0.00021759,0.00006682,0.00002306,-0.00008841,-0.00004351
 ,-0.00010520,-0.00037477,-0.00007065,-0.00042102,-0.00002425,-0.000005
 42,-0.00002702,-0.00000931,0.00001398,0.00000638,-0.00002236,-0.000028
 44,-0.00000160,0.00005289,0.00009046,-0.00006039,-0.00002709,-0.000004
 47,0.00001566,-0.00006892,-0.00003204,-0.00002532,-0.00001540,0.000030
 29,-0.00000053,-0.00000981,-0.00000424,0.00000267,-0.00001233,-0.00001
 685,0.00000356,-0.00000898,0.00000993,-0.00000235,-0.00017259,0.000005
 90,-0.00013286,-0.00002149,-0.00001512,-0.00011551,-0.00002657,-0.0000
 2992,-0.00003645,-0.00000514,0.00002613,0.00005361,-0.00001760,0.00000
 923,-0.00000630,-0.00001006,-0.00000982,0.00005809,-0.00001136,0.00000
 734,0.00000721,-0.00011027,-0.00016963,-0.00000246,-0.00000241,-0.0000
 3020,0.00002515,-0.17477906,0.20915600,-0.11227776,0.17017092,-0.00006
 608,0.00002297,-0.00011584,0.00001075,0.00000834,0.00000047,0.00007635
 ,-0.00001142,0.00004881,0.00037327,0.00015131,0.00317298,0.00050067,-0
 .00026827,0.00011519,-0.00060003,0.00032517,-0.00030598,-0.00005732,-0
 .00004760,-0.00006165,-0.00002325,0.00002396,-0.00002397,-0.00059571,0
 .00046772,0.00007847,0.00011190,-0.00032222,0.00036173,0.00047123,-0.0
 0005711,0.00005543,-0.00058342,0.00059233,-0.00034393,0.00003294,0.000
 22453,0.00010596,-0.00002131,-0.00000481,-0.00000701,0.00010250,-0.000
 04264,-0.00002713,0.00009584,-0.00006956,0.00092617,-0.00003145,0.0003
 7224,-0.00029012,0.00023004,-0.00060028,0.00004065,0.00000725,0.000011
 41,0.00006353,-0.00006980,-0.00010117,-0.00022962,0.00007125,-0.000509
 07,-0.00004665,0.00045845,0.00025104,0.00005033,-0.00026652,-0.0002373
 5,0.00007109,0.00029022,0.00042534,0.00001500,-0.00000036,0.00000520,-
 0.00001857,0.00000191,-0.00001425,-0.00000561,-0.00044769,-0.00002616,
 -0.00006976,-0.00013172,-0.00014303,-0.00005491,-0.00045089,0.00009593
 ,-0.00038463,-0.00000731,-0.00001102,-0.00001757,-0.00001314,0.0000041
 8,0.00000868,0.00000007,-0.00005391,-0.00004772,0.00004282,0.00008259,
 -0.00006550,-0.00001710,0.00000240,0.00002459,-0.00000956,-0.00001839,
 -0.00001229,-0.00001132,0.00000567,-0.00002389,-0.00001892,-0.00000233
 ,-0.00000306,-0.00002902,-0.00004419,-0.00000597,-0.00000920,0.0000006
 5,-0.00000810,0.00003196,0.00005927,-0.00000366,-0.00001021,-0.0000207
 7,0.00001114,-0.00003020,-0.00001693,0.00001517,0.00007130,-0.00008612
 ,-0.00003901,-0.00000369,-0.00001473,0.00000509,0.00001085,-0.00002139
 ,0.00003332,0.00000916,-0.00001624,0.00001201,-0.00010638,-0.00011336,
 0.00002028,0.00002024,-0.00004972,0.00001735,0.16339905,-0.25860553,0.
 08453477,-0.19174525,0.28467056,0.00021319,-0.00020260,-0.00016269,-0.
 00009633,-0.00000893,-0.00022402,0.00002945,0.00004880,-0.00003163,-0.
 00344365,0.00353435,-0.00029961,0.00070067,-0.00048826,-0.00010084,-0.
 00116600,0.00039454,-0.00015608,-0.00002671,-0.00003639,0.00004976,0.0
 0005579,0.00003749,-0.00003146,-0.00075100,0.00033085,0.00001749,0.000
 91839,-0.00020484,0.00015754,0.00018916,-0.00246098,-0.00040810,-0.000
 62764,0.00178550,0.00252417,0.00052634,0.00023233,-0.00034919,-0.00002
 453,-0.00001589,-0.00001974,0.00005666,-0.00005089,-0.00014511,-0.0000
 5928,0.00012688,-0.00050579,0.00010965,-0.00007514,-0.00034310,0.00003
 731,0.00014406,0.00001320,-0.00003771,-0.00000822,0.00003241,0.0001262
 1,0.00003890,0.00014336,0.00007548,-0.00052106,0.00005209,0.00068987,0
 .00041259,0.00010040,-0.00047454,0.00037748,-0.00133168,-0.00026451,-0
 .00015763,-0.00009528,0.00000862,0.00002600,0.00008988,0.00000282,0.00
 000663,0.00005102,0.00007066,0.00002743,0.00005271,-0.00007872,-0.0000
 5082,0.00009186,0.00030432,0.00004354,0.00033920,0.00001604,-0.0000257
 8,0.00000483,0.00001597,-0.00001422,0.00000734,0.00003508,0.00007104,0
 .00009414,-0.00003319,-0.00005257,0.00003136,-0.00001324,-0.00000272,-
 0.00000489,0.00004713,0.00000971,0.00000524,0.00000554,-0.00002954,-0.
 00000238,0.00001704,-0.00001040,-0.00000247,0.00000150,-0.00000303,-0.
 00001333,0.00000266,-0.00001827,-0.00000289,0.00008926,-0.00001297,0.0
 0006214,-0.00003859,0.00001122,0.00004191,-0.00001718,0.00000353,0.000
 00816,-0.00003549,0.00001680,-0.00002943,-0.00001283,0.00000730,-0.000
 00452,0.00005722,0.00000666,-0.00001107,-0.00000973,-0.00000818,-0.000
 00797,0.00002321,0.00000016,-0.00000375,0.00002047,-0.00001736,0.00000
 461,-0.12305049,0.12707355,-0.09367019,0.11201280,-0.10813168,0.086492
 47,-0.00001453,-0.00000913,-0.00001827,-0.00007036,0.00003540,-0.00002
 858,0.00008820,-0.00001075,0.00009633,-0.00014098,0.00050508,0.0009850
 9,-0.00042945,-0.00029665,-0.00086213,-0.00011166,0.00029089,-0.000012
 42,0.00001063,-0.00000651,0.00003665,-0.00001441,0.00000926,0.00002815
 ,0.00077368,-0.00041703,-0.00000331,-0.00009530,-0.00004232,0.00005961
 ,0.00008634,0.00007740,-0.00006148,-0.00012091,-0.00012666,0.00042250,
 0.00007374,0.00028451,-0.00011448,-0.00003750,0.00001371,0.00007400,0.
 00004371,0.00000901,-0.00003290,-0.00007864,-0.00010300,0.00106676,0.0
 0037115,0.00113977,-0.00085773,0.00068442,-0.00165246,0.00002562,-0.00
 001914,0.00004097,0.00011518,-0.00010199,-0.00008871,-0.00021887,-0.00
 007511,0.00032462,0.00012772,-0.00049545,-0.00036850,-0.00022609,0.000
 14744,-0.00034173,0.00057096,0.00074524,0.00099662,-0.00017201,-0.0000
 3599,0.00006213,-0.00012243,-0.00002920,0.00006833,-0.00006391,-0.0008
 8406,0.00002623,0.00008419,-0.00003319,-0.00012146,-0.00008441,-0.0005
 9954,0.00028517,-0.00035936,-0.00003414,0.00001577,-0.00002833,-0.0000
 3562,0.00002768,-0.00000767,0.00000366,-0.00001236,-0.00000565,0.00004
 371,0.00008665,-0.00007853,-0.00003128,0.00000796,0.00003529,-0.000035
 21,-0.00003593,0.00000427,-0.00000829,0.00001697,-0.00005766,-0.000041
 04,0.00000381,0.00002885,-0.00004836,-0.00009785,0.00000689,-0.0000177
 9,0.00001108,0.00005158,-0.00002670,0.00002776,-0.00003775,-0.00001159
 ,-0.00000360,-0.00002644,-0.00000943,-0.00001914,-0.00001126,-0.000013
 77,-0.00001548,0.00000207,-0.00003116,0.00006053,-0.00003612,-0.000014
 18,0.00000159,-0.00000250,-0.00015589,0.00008845,0.00000432,-0.0000163
 3,-0.00000923,0.00000264,-0.00000405,-0.00000270,0.00000208,-0.0529709
 1,-0.10915606,-0.08403185,0.00466275,0.02893684,0.01380287,0.04915849,
 0.00003699,-0.00003965,0.00013240,-0.00003541,-0.00000037,-0.00000743,
 -0.00002450,0.00000834,-0.00000893,-0.00045362,0.00172087,-0.00260013,
 0.00021042,-0.00034319,-0.00004759,-0.00019949,0.00038982,-0.00006091,
 -0.00001094,-0.00000032,-0.00001840,0.00000703,-0.00000679,-0.00003970
 ,-0.00037684,0.00030790,-0.00001612,0.00025136,-0.00006691,0.00011295,
 -0.00012019,-0.00024681,-0.00000287,0.00005697,0.00018699,0.00045744,0
 .00007449,0.00004218,-0.00012485,-0.00004860,-0.00002407,-0.00010080,0
 .00000759,-0.00000647,-0.00002497,-0.00026373,0.00015200,-0.00038276,0
 .00070005,0.00055130,-0.00021626,-0.00023987,-0.00041563,0.00014785,-0
 .00007824,-0.00003949,0.00005646,0.00004823,0.00004887,0.00011408,-0.0
 0009579,-0.00050970,0.00008359,0.00076398,0.00047471,0.00002078,-0.000
 71151,0.00001923,-0.00062354,0.00032106,-0.00002202,0.00025975,0.00004
 219,-0.00003037,0.00005786,0.00001910,-0.00000619,0.00000997,-0.000127
 78,-0.00019358,-0.00014423,0.00008093,-0.00000173,0.00003876,0.0001975
 2,0.00006115,0.00021530,-0.00000062,-0.00001101,0.00000988,0.00000091,
 -0.00002118,0.00001588,0.00000740,-0.00000595,-0.00000322,-0.00000504,
 -0.00006231,0.00000876,0.00001614,0.00000072,-0.00000167,-0.00000516,-
 0.00000018,-0.00001298,0.00000913,-0.00002123,-0.00002504,-0.00001436,
 -0.00001599,-0.00001459,-0.00011271,-0.00005913,-0.00000785,-0.0000099
 1,-0.00002534,-0.00002062,0.00004101,0.00000489,0.00003987,0.00000319,
 0.00000406,0.00003105,0.00001187,0.00000099,0.00001171,0.00000045,-0.0
 0002080,-0.00001482,0.00003231,-0.00006459,0.00002476,0.00000470,-0.00
 000776,0.00000693,0.00005080,-0.00001563,0.00000443,0.00000233,-0.0000
 2540,0.00000427,0.00000248,-0.00001084,0.00000795,-0.06366451,-0.34134
 603,-0.15567204,-0.01588492,-0.02627321,-0.02215897,0.07948306,0.36596
 581,0.00013642,0.00030403,-0.00015837,0.00002857,-0.00000743,0.0000398
 0,-0.00005920,0.00000046,-0.00022402,-0.00155384,-0.00441717,-0.001275
 57,-0.00093196,-0.00036758,-0.00168981,-0.00022720,0.00033476,-0.00000
 578,0.00000170,0.00001281,0.00003302,-0.00002043,0.00001570,0.00016176
 ,0.00089860,-0.00063286,0.00000168,0.00005148,0.00000762,0.00014578,0.
 00004349,0.00009098,-0.00001340,0.00031240,-0.00000766,-0.00056756,-0.
 00005316,-0.00019590,-0.00014018,0.00005226,0.00001315,0.00003401,-0.0
 0001672,0.00000034,0.00003357,0.00057051,-0.00019359,-0.00039591,-0.00
 097226,-0.00137191,0.00204692,0.00009959,0.00198698,-0.00037105,0.0000
 4011,0.00000183,-0.00014471,0.00001859,0.00003733,0.00005721,0.0000604
 1,0.00076454,-0.00000199,-0.00133532,-0.00056365,-0.00011498,0.0009800
 3,0.00009699,0.00105131,-0.00058646,0.00017926,-0.00031503,-0.00001825
 ,0.00001076,0.00004725,0.00003140,-0.00001937,-0.00005691,0.00061662,0
 .00007273,0.00008822,0.00001445,0.00006477,0.00002924,0.00034701,-0.00
 007825,0.00015789,0.00002525,0.00003484,0.00001715,0.00001344,-0.00004
 902,0.00007449,0.00000839,0.00000766,0.00000065,-0.00002043,-0.0000397
 2,0.00003660,-0.00005281,-0.00001247,-0.00000423,-0.00000171,-0.000007
 90,0.00000286,-0.00001300,-0.00001221,0.00002323,0.00006426,-0.0000112
 3,-0.00000711,-0.00002303,0.00001134,-0.00000989,0.00002733,0.00000932
 ,0.00000851,0.00002674,-0.00001621,0.00000845,-0.00000930,0.00000439,0
 .00001635,-0.00002144,0.00001208,0.00000779,0.00001472,0.00001516,-0.0
 0000308,0.00001735,-0.00000492,-0.00000749,0.00000961,0.00000997,-0.00
 000150,0.00002832,-0.00002244,-0.00000521,-0.00001378,0.00000535,-0.00
 000563,0.00001596,0.00004459,-0.00001032,-0.06997898,-0.19715245,-0.13
 311107,0.00142574,0.02055562,0.00748992,0.06992850,0.18047861,0.127027
 13\\0.00000420,-0.00000529,0.00000921,-0.00000206,-0.00000187,-0.00000
 108,0.00000182,-0.00000148,-0.00000280,-0.00000263,-0.00000006,0.00000
 016,-0.00000978,0.00000853,-0.00000548,0.00000805,-0.00000559,0.000002
 32,-0.00000038,0.00000045,0.00000011,0.00000071,0.00000088,0.00000045,
 0.00000729,-0.00000327,0.00000281,-0.00000876,-0.00000397,-0.00000099,
 0.00000951,0.00001190,-0.00000298,-0.00001298,-0.00000901,-0.00000443,
 0.00001466,0.00000362,0.00000448,-0.00000653,0.00000382,-0.00000129,-0
 .00000243,-0.00000255,-0.00000098,0.00001457,-0.00000367,-0.00000489,-
 0.00001233,0.00000947,0.00000430,0.00000895,-0.00001165,0.00000305,-0.
 00000271,0.00000262,0.00000134,-0.00000668,-0.00000424,0.00000135,-0.0
 0000603,-0.00000011,-0.00000006,0.00000791,0.00000309,-0.00000275,-0.0
 0001023,-0.00000833,0.00000558,0.00000841,0.00000575,-0.00000250,-0.00
 000035,-0.00000092,0.00000120,0.00000051,-0.00000082,-0.00000111,-0.00
 000883,0.00000402,0.00000106,-0.00000211,-0.00000014,-0.00000053,-0.00
 000204,0.00000005,0.00000094,0.00000083,0.00000001,0.00000002,0.000000
 90,-0.00000063,-0.00000023,0.00000090,0.00000027,0.00000025,0.00000138
 ,0.00000073,-0.00000153,0.00000069,0.00000024,-0.00000075,-0.00000083,
 0.00000016,0.00000067,0.00000035,0.00000009,-0.00000119,0.00000005,-0.
 00000060,-0.00000181,0.00000053,0.00000095,-0.00000049,-0.00000055,-0.
 00000009,-0.00000050,0.00000134,-0.00000067,0.00000143,0.00000064,-0.0
 0000024,0.00000078,0.00000053,-0.00000112,0.00000050,0.00000035,0.0000
 0011,0.00000086,0.00000008,0.00000080,-0.00000146,0.00000009,-0.000000
 98,0.00000122,-0.00000052,0.00000021,-0.00000017,0.00000007,0.00000096
 ,0.00000091,-0.00000045,-0.00000007,0.00000058,0.00000389,0.00000582,-
 0.00000958,0.00000214,0.00000093,0.00000296,-0.00000214,0.00000191,0.0
 0000102\\\@


 It takes a long time to grow an old friend.
                            -- John Leonard
 Job cpu time:       0 days  0 hours  1 minutes 35.2 seconds.
 File lengths (MBytes):  RWF=   2519 Int=      0 D2E=      0 Chk=     18 Scr=      1
 Normal termination of Gaussian 09 at Thu Oct 29 08:46:15 2015.
